 Entering Gaussian System, Link 0=g16
 Input=/home/exlonk/in_progress/3293.inp
 Output=/home/exlonk/in_progress/3293.log
 Initial command:
 /opt/gaussian/g16-c01/g16/l1.exe "/lustre/tmp/slurm/2183858/Gau-2760292.inp" -scrdir="/lustre/tmp/slurm/2183858/"
 Default CPUs for threads: 4-6,9-11,15-17,19-22,28-30,34-36,40-46
 Default is to use a total of  26 processors:
                               26 via shared-memory
                                1 via Linda
 Entering Link 1 = /opt/gaussian/g16-c01/g16/l1.exe PID=   2760293.
  
 Copyright (c) 1988-2019, Gaussian, Inc.  All Rights Reserved.
  
 This is part of the Gaussian(R) 16 program.  It is based on
 the Gaussian(R) 09 system (copyright 2009, Gaussian, Inc.),
 the Gaussian(R) 03 system (copyright 2003, Gaussian, Inc.),
 the Gaussian(R) 98 system (copyright 1998, Gaussian, Inc.),
 the Gaussian(R) 94 system (copyright 1995, Gaussian, Inc.),
 the Gaussian 92(TM) system (copyright 1992, Gaussian, Inc.),
 the Gaussian 90(TM) system (copyright 1990, Gaussian, Inc.),
 the Gaussian 88(TM) system (copyright 1988, Gaussian, Inc.),
 the Gaussian 86(TM) system (copyright 1986, Carnegie Mellon
 University), and the Gaussian 82(TM) system (copyright 1983,
 Carnegie Mellon University). Gaussian is a federally registered
 trademark of Gaussian, Inc.
  
 This software contains proprietary and confidential information,
 including trade secrets, belonging to Gaussian, Inc.
  
 This software is provided under written license and may be
 used, copied, transmitted, or stored only in accord with that
 written license.
  
 The following legend is applicable only to US Government
 contracts under FAR:
  
                    RESTRICTED RIGHTS LEGEND
  
 Use, reproduction and disclosure by the US Government is
 subject to restrictions as set forth in subparagraphs (a)
 and (c) of the Commercial Computer Software - Restricted
 Rights clause in FAR 52.227-19.
  
 Gaussian, Inc.
 340 Quinnipiac St., Bldg. 40, Wallingford CT 06492
  
  
 ---------------------------------------------------------------
 Warning -- This program may not be used in any manner that
 competes with the business of Gaussian, Inc. or will provide
 assistance to any competitor of Gaussian, Inc.  The licensee
 of this program is prohibited from giving any competitor of
 Gaussian, Inc. access to this program.  By using this program,
 the user acknowledges that Gaussian, Inc. is engaged in the
 business of creating and licensing software in the field of
 computational chemistry and represents and warrants to the
 licensee that it is not a competitor of Gaussian, Inc. and that
 it will not use this program in any manner prohibited above.
 ---------------------------------------------------------------
  

 Cite this work as:
 Gaussian 16, Revision C.01,
 M. J. Frisch, G. W. Trucks, H. B. Schlegel, G. E. Scuseria, 
 M. A. Robb, J. R. Cheeseman, G. Scalmani, V. Barone, 
 G. A. Petersson, H. Nakatsuji, X. Li, M. Caricato, A. V. Marenich, 
 J. Bloino, B. G. Janesko, R. Gomperts, B. Mennucci, H. P. Hratchian, 
 J. V. Ortiz, A. F. Izmaylov, J. L. Sonnenberg, D. Williams-Young, 
 F. Ding, F. Lipparini, F. Egidi, J. Goings, B. Peng, A. Petrone, 
 T. Henderson, D. Ranasinghe, V. G. Zakrzewski, J. Gao, N. Rega, 
 G. Zheng, W. Liang, M. Hada, M. Ehara, K. Toyota, R. Fukuda, 
 J. Hasegawa, M. Ishida, T. Nakajima, Y. Honda, O. Kitao, H. Nakai, 
 T. Vreven, K. Throssell, J. A. Montgomery, Jr., J. E. Peralta, 
 F. Ogliaro, M. J. Bearpark, J. J. Heyd, E. N. Brothers, K. N. Kudin, 
 V. N. Staroverov, T. A. Keith, R. Kobayashi, J. Normand, 
 K. Raghavachari, A. P. Rendell, J. C. Burant, S. S. Iyengar, 
 J. Tomasi, M. Cossi, J. M. Millam, M. Klene, C. Adamo, R. Cammi, 
 J. W. Ochterski, R. L. Martin, K. Morokuma, O. Farkas, 
 J. B. Foresman, and D. J. Fox, Gaussian, Inc., Wallingford CT, 2019.
 
 ******************************************
 Gaussian 16:  EM64L-G16RevC.01  3-Jul-2019
                 6-Dec-2023 
 ******************************************
 %nproc=26
 Will use up to   26 processors via shared memory.
 %mem=16GB
 %chk=/home/exlonk/in_progress/3293.chk
 ------------------------------
 #p MN15/6-311++G(d,p) opt freq
 ------------------------------
 1/18=20,19=15,26=3,38=1/1,3;
 2/9=110,12=2,17=6,18=5,40=1/2;
 3/5=4,6=6,7=1111,11=2,25=1,30=1,71=1,74=-73/1,2,3;
 4//1;
 5/5=2,38=5/2;
 6/7=2,8=2,9=2,10=2,28=1/1;
 7//1,2,3,16;
 1/18=20,19=15,26=3/3(2);
 2/9=110/2;
 99//99;
 2/9=110/2;
 3/5=4,6=6,7=1111,11=2,25=1,30=1,71=1,74=-73/1,2,3;
 4/5=5,16=3,69=1/1;
 5/5=2,38=5/2;
 7//1,2,3,16;
 1/18=20,19=15,26=3/3(-5);
 2/9=110/2;
 6/7=2,8=2,9=2,10=2,19=2,28=1/1;
 99/9=1/99;
 Leave Link    1 at Wed Dec  6 10:02:04 2023, MaxMem=  2147483648 cpu:               7.7 elap:               0.3
 (Enter /opt/gaussian/g16-c01/g16/l101.exe)
 ---------------
 name file: 3293
 ---------------
 Symbolic Z-matrix:
 Charge =  0 Multiplicity = 1
 N                    -1.6562   -0.0891   -0.1239 
 N                    -0.3802    0.388    -0.1728 
 C                    -2.7836    0.6709   -0.3284 
 C                    -2.0398   -1.3907    0.1299 
 C                    -2.7115    2.1177   -0.6239 
 C                    -3.8855   -0.1468   -0.2068 
 C                    -3.4162   -1.4504    0.0831 
 C                     0.5374   -0.5101    0.0422 
 C                    -1.0201   -2.3349    0.375 
 C                     0.261    -1.9484    0.3451 
 C                     1.9658   -0.1004    0.0075 
 C                    -2.741     2.9839    0.6387 
 C                     2.9457   -1.0169   -0.3737 
 C                     2.3261    1.2015    0.3549 
 C                     4.286    -0.6316   -0.4076 
 C                     3.6661    1.587     0.321 
 C                     4.6461    0.6704   -0.0603 
 H                    -1.8127    2.3566   -1.2045 
 H                    -3.5616    2.3995   -1.2579 
 H                    -4.9164    0.1613   -0.3139 
 H                    -4.0181   -2.3347    0.2419 
 H                    -1.2806   -3.3628    0.6034 
 H                     1.0508   -2.6514    0.5725 
 H                    -3.6562    2.8094    1.2145 
 H                    -2.7021    4.0443    0.3706 
 H                    -1.8867    2.7629    1.2874 
 H                     2.7065   -2.0285   -0.6869 
 H                     1.5811    1.931     0.6616 
 H                     5.0485   -1.3424   -0.7125 
 H                     3.947     2.6004    0.5925 
 H                     5.6893    0.971    -0.0882 
 
 ITRead=  0  0  0  0  0  0  0  0  0  0  0  0  0  0  0  0  0  0  0  0
 ITRead=  0  0  0  0  0  0  0  0  0  0  0
 MicOpt= -1 -1 -1 -1 -1 -1 -1 -1 -1 -1 -1 -1 -1 -1 -1 -1 -1 -1 -1 -1
 MicOpt= -1 -1 -1 -1 -1 -1 -1 -1 -1 -1 -1
 NAtoms=     31 NQM=       31 NQMF=       0 NMMI=      0 NMMIF=      0
                NMic=       0 NMicF=      0.
                    Isotopes and Nuclear Properties:
 (Nuclear quadrupole moments (NQMom) in fm**2, nuclear magnetic moments (NMagM)
  in nuclear magnetons)

  Atom         1           2           3           4           5           6           7           8           9          10
 IAtWgt=          14          14          12          12          12          12          12          12          12          12
 AtmWgt=  14.0030740  14.0030740  12.0000000  12.0000000  12.0000000  12.0000000  12.0000000  12.0000000  12.0000000  12.0000000
 NucSpn=           2           2           0           0           0           0           0           0           0           0
 AtZEff=  -0.0000000  -0.0000000  -0.0000000  -0.0000000  -0.0000000  -0.0000000  -0.0000000  -0.0000000  -0.0000000  -0.0000000
 NQMom=    2.0440000   2.0440000   0.0000000   0.0000000   0.0000000   0.0000000   0.0000000   0.0000000   0.0000000   0.0000000
 NMagM=    0.4037610   0.4037610   0.0000000   0.0000000   0.0000000   0.0000000   0.0000000   0.0000000   0.0000000   0.0000000
 AtZNuc=   7.0000000   7.0000000   6.0000000   6.0000000   6.0000000   6.0000000   6.0000000   6.0000000   6.0000000   6.0000000

  Atom        11          12          13          14          15          16          17          18          19          20
 IAtWgt=          12          12          12          12          12          12          12           1           1           1
 AtmWgt=  12.0000000  12.0000000  12.0000000  12.0000000  12.0000000  12.0000000  12.0000000   1.0078250   1.0078250   1.0078250
 NucSpn=           0           0           0           0           0           0           0           1           1           1
 AtZEff=  -0.0000000  -0.0000000  -0.0000000  -0.0000000  -0.0000000  -0.0000000  -0.0000000  -0.0000000  -0.0000000  -0.0000000
 NQMom=    0.0000000   0.0000000   0.0000000   0.0000000   0.0000000   0.0000000   0.0000000   0.0000000   0.0000000   0.0000000
 NMagM=    0.0000000   0.0000000   0.0000000   0.0000000   0.0000000   0.0000000   0.0000000   2.7928460   2.7928460   2.7928460
 AtZNuc=   6.0000000   6.0000000   6.0000000   6.0000000   6.0000000   6.0000000   6.0000000   1.0000000   1.0000000   1.0000000

  Atom        21          22          23          24          25          26          27          28          29          30
 IAtWgt=           1           1           1           1           1           1           1           1           1           1
 AtmWgt=   1.0078250   1.0078250   1.0078250   1.0078250   1.0078250   1.0078250   1.0078250   1.0078250   1.0078250   1.0078250
 NucSpn=           1           1           1           1           1           1           1           1           1           1
 AtZEff=  -0.0000000  -0.0000000  -0.0000000  -0.0000000  -0.0000000  -0.0000000  -0.0000000  -0.0000000  -0.0000000  -0.0000000
 NQMom=    0.0000000   0.0000000   0.0000000   0.0000000   0.0000000   0.0000000   0.0000000   0.0000000   0.0000000   0.0000000
 NMagM=    2.7928460   2.7928460   2.7928460   2.7928460   2.7928460   2.7928460   2.7928460   2.7928460   2.7928460   2.7928460
 AtZNuc=   1.0000000   1.0000000   1.0000000   1.0000000   1.0000000   1.0000000   1.0000000   1.0000000   1.0000000   1.0000000

  Atom        31
 IAtWgt=           1
 AtmWgt=   1.0078250
 NucSpn=           1
 AtZEff=  -0.0000000
 NQMom=    0.0000000
 NMagM=    2.7928460
 AtZNuc=   1.0000000
 Leave Link  101 at Wed Dec  6 10:02:05 2023, MaxMem=  2147483648 cpu:               9.7 elap:               0.4
 (Enter /opt/gaussian/g16-c01/g16/l103.exe)

 GradGradGradGradGradGradGradGradGradGradGradGradGradGradGradGradGradGrad
 Berny optimization.
 Initialization pass.
                           ----------------------------
                           !    Initial Parameters    !
                           ! (Angstroms and Degrees)  !
 --------------------------                            --------------------------
 ! Name  Definition              Value          Derivative Info.                !
 --------------------------------------------------------------------------------
 ! R1    R(1,2)                  1.3632         estimate D2E/DX2                !
 ! R2    R(1,3)                  1.3749         estimate D2E/DX2                !
 ! R3    R(1,4)                  1.3805         estimate D2E/DX2                !
 ! R4    R(2,8)                  1.3018         estimate D2E/DX2                !
 ! R5    R(3,5)                  1.4784         estimate D2E/DX2                !
 ! R6    R(3,6)                  1.3775         estimate D2E/DX2                !
 ! R7    R(4,7)                  1.3785         estimate D2E/DX2                !
 ! R8    R(4,9)                  1.4112         estimate D2E/DX2                !
 ! R9    R(5,12)                 1.5314         estimate D2E/DX2                !
 ! R10   R(5,18)                 1.0964         estimate D2E/DX2                !
 ! R11   R(5,19)                 1.0973         estimate D2E/DX2                !
 ! R12   R(6,7)                  1.4155         estimate D2E/DX2                !
 ! R13   R(6,20)                 1.0813         estimate D2E/DX2                !
 ! R14   R(7,21)                 1.0814         estimate D2E/DX2                !
 ! R15   R(8,10)                 1.4956         estimate D2E/DX2                !
 ! R16   R(8,11)                 1.4864         estimate D2E/DX2                !
 ! R17   R(9,10)                 1.3385         estimate D2E/DX2                !
 ! R18   R(9,22)                 1.0847         estimate D2E/DX2                !
 ! R19   R(10,23)                1.0815         estimate D2E/DX2                !
 ! R20   R(11,13)                1.3948         estimate D2E/DX2                !
 ! R21   R(11,14)                1.3948         estimate D2E/DX2                !
 ! R22   R(12,24)                1.0953         estimate D2E/DX2                !
 ! R23   R(12,25)                1.0945         estimate D2E/DX2                !
 ! R24   R(12,26)                1.0952         estimate D2E/DX2                !
 ! R25   R(13,15)                1.395          estimate D2E/DX2                !
 ! R26   R(13,27)                1.0857         estimate D2E/DX2                !
 ! R27   R(14,16)                1.3948         estimate D2E/DX2                !
 ! R28   R(14,28)                1.0869         estimate D2E/DX2                !
 ! R29   R(15,17)                1.3948         estimate D2E/DX2                !
 ! R30   R(15,29)                1.0861         estimate D2E/DX2                !
 ! R31   R(16,17)                1.395          estimate D2E/DX2                !
 ! R32   R(16,30)                1.0861         estimate D2E/DX2                !
 ! R33   R(17,31)                1.086          estimate D2E/DX2                !
 ! A1    A(2,1,3)              124.6626         estimate D2E/DX2                !
 ! A2    A(2,1,4)              126.634          estimate D2E/DX2                !
 ! A3    A(3,1,4)              108.7032         estimate D2E/DX2                !
 ! A4    A(1,2,8)              114.356          estimate D2E/DX2                !
 ! A5    A(1,3,5)              122.0506         estimate D2E/DX2                !
 ! A6    A(1,3,6)              108.3399         estimate D2E/DX2                !
 ! A7    A(5,3,6)              129.6095         estimate D2E/DX2                !
 ! A8    A(1,4,7)              108.1825         estimate D2E/DX2                !
 ! A9    A(1,4,9)              117.5165         estimate D2E/DX2                !
 ! A10   A(7,4,9)              134.3004         estimate D2E/DX2                !
 ! A11   A(3,5,12)             112.8166         estimate D2E/DX2                !
 ! A12   A(3,5,18)             111.043          estimate D2E/DX2                !
 ! A13   A(3,5,19)             109.2096         estimate D2E/DX2                !
 ! A14   A(12,5,18)            109.217          estimate D2E/DX2                !
 ! A15   A(12,5,19)            108.4319         estimate D2E/DX2                !
 ! A16   A(18,5,19)            105.8539         estimate D2E/DX2                !
 ! A17   A(3,6,7)              107.4302         estimate D2E/DX2                !
 ! A18   A(3,6,20)             125.7859         estimate D2E/DX2                !
 ! A19   A(7,6,20)             126.7838         estimate D2E/DX2                !
 ! A20   A(4,7,6)              107.344          estimate D2E/DX2                !
 ! A21   A(4,7,21)             125.8852         estimate D2E/DX2                !
 ! A22   A(6,7,21)             126.7706         estimate D2E/DX2                !
 ! A23   A(2,8,10)             124.5148         estimate D2E/DX2                !
 ! A24   A(2,8,11)             118.9036         estimate D2E/DX2                !
 ! A25   A(10,8,11)            116.5766         estimate D2E/DX2                !
 ! A26   A(4,9,10)             119.6392         estimate D2E/DX2                !
 ! A27   A(4,9,22)             119.8074         estimate D2E/DX2                !
 ! A28   A(10,9,22)            120.5443         estimate D2E/DX2                !
 ! A29   A(8,10,9)             117.3296         estimate D2E/DX2                !
 ! A30   A(8,10,23)            122.1896         estimate D2E/DX2                !
 ! A31   A(9,10,23)            120.4356         estimate D2E/DX2                !
 ! A32   A(8,11,13)            120.0257         estimate D2E/DX2                !
 ! A33   A(8,11,14)            119.9801         estimate D2E/DX2                !
 ! A34   A(13,11,14)           119.9942         estimate D2E/DX2                !
 ! A35   A(5,12,24)            111.0641         estimate D2E/DX2                !
 ! A36   A(5,12,25)            110.2041         estimate D2E/DX2                !
 ! A37   A(5,12,26)            111.0491         estimate D2E/DX2                !
 ! A38   A(24,12,25)           108.2309         estimate D2E/DX2                !
 ! A39   A(24,12,26)           107.9545         estimate D2E/DX2                !
 ! A40   A(25,12,26)           108.2327         estimate D2E/DX2                !
 ! A41   A(11,13,15)           120.0095         estimate D2E/DX2                !
 ! A42   A(11,13,27)           122.4331         estimate D2E/DX2                !
 ! A43   A(15,13,27)           117.5188         estimate D2E/DX2                !
 ! A44   A(11,14,16)           120.007          estimate D2E/DX2                !
 ! A45   A(11,14,28)           121.3133         estimate D2E/DX2                !
 ! A46   A(16,14,28)           118.6785         estimate D2E/DX2                !
 ! A47   A(13,15,17)           119.9882         estimate D2E/DX2                !
 ! A48   A(13,15,29)           120.039          estimate D2E/DX2                !
 ! A49   A(17,15,29)           119.9707         estimate D2E/DX2                !
 ! A50   A(14,16,17)           119.9983         estimate D2E/DX2                !
 ! A51   A(14,16,30)           120.0196         estimate D2E/DX2                !
 ! A52   A(17,16,30)           119.9821         estimate D2E/DX2                !
 ! A53   A(15,17,16)           120.0028         estimate D2E/DX2                !
 ! A54   A(15,17,31)           119.9984         estimate D2E/DX2                !
 ! A55   A(16,17,31)           119.9988         estimate D2E/DX2                !
 ! D1    D(3,1,2,8)           -179.5253         estimate D2E/DX2                !
 ! D2    D(4,1,2,8)              0.2872         estimate D2E/DX2                !
 ! D3    D(2,1,3,5)             -0.2204         estimate D2E/DX2                !
 ! D4    D(2,1,3,6)            179.7566         estimate D2E/DX2                !
 ! D5    D(4,1,3,5)            179.9385         estimate D2E/DX2                !
 ! D6    D(4,1,3,6)             -0.0846         estimate D2E/DX2                !
 ! D7    D(2,1,4,7)           -179.7591         estimate D2E/DX2                !
 ! D8    D(2,1,4,9)              0.4723         estimate D2E/DX2                !
 ! D9    D(3,1,4,7)              0.0781         estimate D2E/DX2                !
 ! D10   D(3,1,4,9)           -179.6906         estimate D2E/DX2                !
 ! D11   D(1,2,8,10)            -1.0588         estimate D2E/DX2                !
 ! D12   D(1,2,8,11)           179.7831         estimate D2E/DX2                !
 ! D13   D(1,3,5,12)           -90.0021         estimate D2E/DX2                !
 ! D14   D(1,3,5,18)            32.9856         estimate D2E/DX2                !
 ! D15   D(1,3,5,19)           149.3456         estimate D2E/DX2                !
 ! D16   D(6,3,5,12)            90.0263         estimate D2E/DX2                !
 ! D17   D(6,3,5,18)          -146.986          estimate D2E/DX2                !
 ! D18   D(6,3,5,19)           -30.6259         estimate D2E/DX2                !
 ! D19   D(1,3,6,7)              0.058          estimate D2E/DX2                !
 ! D20   D(1,3,6,20)           179.987          estimate D2E/DX2                !
 ! D21   D(5,3,6,7)           -179.9674         estimate D2E/DX2                !
 ! D22   D(5,3,6,20)            -0.0384         estimate D2E/DX2                !
 ! D23   D(1,4,7,6)             -0.0414         estimate D2E/DX2                !
 ! D24   D(1,4,7,21)          -179.933          estimate D2E/DX2                !
 ! D25   D(9,4,7,6)            179.672          estimate D2E/DX2                !
 ! D26   D(9,4,7,21)            -0.2196         estimate D2E/DX2                !
 ! D27   D(1,4,9,10)            -0.4518         estimate D2E/DX2                !
 ! D28   D(1,4,9,22)           178.4536         estimate D2E/DX2                !
 ! D29   D(7,4,9,10)           179.8553         estimate D2E/DX2                !
 ! D30   D(7,4,9,22)            -1.2393         estimate D2E/DX2                !
 ! D31   D(3,5,12,24)          -59.1473         estimate D2E/DX2                !
 ! D32   D(3,5,12,25)         -179.0789         estimate D2E/DX2                !
 ! D33   D(3,5,12,26)           60.9968         estimate D2E/DX2                !
 ! D34   D(18,5,12,24)         176.8535         estimate D2E/DX2                !
 ! D35   D(18,5,12,25)          56.9218         estimate D2E/DX2                !
 ! D36   D(18,5,12,26)         -63.0024         estimate D2E/DX2                !
 ! D37   D(19,5,12,24)          61.9483         estimate D2E/DX2                !
 ! D38   D(19,5,12,25)         -57.9833         estimate D2E/DX2                !
 ! D39   D(19,5,12,26)        -177.9076         estimate D2E/DX2                !
 ! D40   D(3,6,7,4)             -0.0101         estimate D2E/DX2                !
 ! D41   D(3,6,7,21)           179.8802         estimate D2E/DX2                !
 ! D42   D(20,6,7,4)          -179.9382         estimate D2E/DX2                !
 ! D43   D(20,6,7,21)           -0.0479         estimate D2E/DX2                !
 ! D44   D(2,8,10,9)             1.0769         estimate D2E/DX2                !
 ! D45   D(2,8,10,23)         -176.4854         estimate D2E/DX2                !
 ! D46   D(11,8,10,9)         -179.7472         estimate D2E/DX2                !
 ! D47   D(11,8,10,23)           2.6905         estimate D2E/DX2                !
 ! D48   D(2,8,11,13)         -150.777          estimate D2E/DX2                !
 ! D49   D(2,8,11,14)           29.1534         estimate D2E/DX2                !
 ! D50   D(10,8,11,13)          29.9986         estimate D2E/DX2                !
 ! D51   D(10,8,11,14)        -150.071          estimate D2E/DX2                !
 ! D52   D(4,9,10,8)            -0.2279         estimate D2E/DX2                !
 ! D53   D(4,9,10,23)          177.3794         estimate D2E/DX2                !
 ! D54   D(22,9,10,8)         -179.1251         estimate D2E/DX2                !
 ! D55   D(22,9,10,23)          -1.5178         estimate D2E/DX2                !
 ! D56   D(8,11,13,15)         179.9277         estimate D2E/DX2                !
 ! D57   D(8,11,13,27)           2.2403         estimate D2E/DX2                !
 ! D58   D(14,11,13,15)         -0.0027         estimate D2E/DX2                !
 ! D59   D(14,11,13,27)       -177.69           estimate D2E/DX2                !
 ! D60   D(8,11,14,16)        -179.9235         estimate D2E/DX2                !
 ! D61   D(8,11,14,28)           0.4902         estimate D2E/DX2                !
 ! D62   D(13,11,14,16)          0.0069         estimate D2E/DX2                !
 ! D63   D(13,11,14,28)       -179.5794         estimate D2E/DX2                !
 ! D64   D(11,13,15,17)         -0.0042         estimate D2E/DX2                !
 ! D65   D(11,13,15,29)       -179.4786         estimate D2E/DX2                !
 ! D66   D(27,13,15,17)        177.7949         estimate D2E/DX2                !
 ! D67   D(27,13,15,29)         -1.6795         estimate D2E/DX2                !
 ! D68   D(11,14,16,17)         -0.0042         estimate D2E/DX2                !
 ! D69   D(11,14,16,30)       -179.9342         estimate D2E/DX2                !
 ! D70   D(28,14,16,17)        179.5929         estimate D2E/DX2                !
 ! D71   D(28,14,16,30)         -0.3371         estimate D2E/DX2                !
 ! D72   D(13,15,17,16)          0.0069         estimate D2E/DX2                !
 ! D73   D(13,15,17,31)       -179.8998         estimate D2E/DX2                !
 ! D74   D(29,15,17,16)        179.4816         estimate D2E/DX2                !
 ! D75   D(29,15,17,31)         -0.4251         estimate D2E/DX2                !
 ! D76   D(14,16,17,15)         -0.0027         estimate D2E/DX2                !
 ! D77   D(14,16,17,31)        179.904          estimate D2E/DX2                !
 ! D78   D(30,16,17,15)        179.9274         estimate D2E/DX2                !
 ! D79   D(30,16,17,31)         -0.1659         estimate D2E/DX2                !
 --------------------------------------------------------------------------------
 Trust Radius=3.00D-01 FncErr=1.00D-07 GrdErr=1.00D-06 EigMax=2.50D+02 EigMin=1.00D-04
 Number of steps in this run=    177 maximum allowed number of steps=    186.
 GradGradGradGradGradGradGradGradGradGradGradGradGradGradGradGradGradGrad

 Leave Link  103 at Wed Dec  6 10:02:05 2023, MaxMem=  2147483648 cpu:               0.8 elap:               0.1
 (Enter /opt/gaussian/g16-c01/g16/l202.exe)
                          Input orientation:                          
 ---------------------------------------------------------------------
 Center     Atomic      Atomic             Coordinates (Angstroms)
 Number     Number       Type             X           Y           Z
 ---------------------------------------------------------------------
      1          7           0       -1.656200   -0.089100   -0.123900
      2          7           0       -0.380200    0.388000   -0.172800
      3          6           0       -2.783600    0.670900   -0.328400
      4          6           0       -2.039800   -1.390700    0.129900
      5          6           0       -2.711500    2.117700   -0.623900
      6          6           0       -3.885500   -0.146800   -0.206800
      7          6           0       -3.416200   -1.450400    0.083100
      8          6           0        0.537400   -0.510100    0.042200
      9          6           0       -1.020100   -2.334900    0.375000
     10          6           0        0.261000   -1.948400    0.345100
     11          6           0        1.965800   -0.100400    0.007500
     12          6           0       -2.741000    2.983900    0.638700
     13          6           0        2.945700   -1.016900   -0.373700
     14          6           0        2.326100    1.201500    0.354900
     15          6           0        4.286000   -0.631600   -0.407600
     16          6           0        3.666100    1.587000    0.321000
     17          6           0        4.646100    0.670400   -0.060300
     18          1           0       -1.812700    2.356600   -1.204500
     19          1           0       -3.561600    2.399500   -1.257900
     20          1           0       -4.916400    0.161300   -0.313900
     21          1           0       -4.018100   -2.334700    0.241900
     22          1           0       -1.280600   -3.362800    0.603400
     23          1           0        1.050800   -2.651400    0.572500
     24          1           0       -3.656200    2.809400    1.214500
     25          1           0       -2.702100    4.044300    0.370600
     26          1           0       -1.886700    2.762900    1.287400
     27          1           0        2.706500   -2.028500   -0.686900
     28          1           0        1.581100    1.931000    0.661600
     29          1           0        5.048500   -1.342400   -0.712500
     30          1           0        3.947000    2.600400    0.592500
     31          1           0        5.689300    0.971000   -0.088200
 ---------------------------------------------------------------------
                    Distance matrix (angstroms):
                    1          2          3          4          5
     1  N    0.000000
     2  N    1.363155   0.000000
     3  C    1.374937   2.424990   0.000000
     4  C    1.380480   2.451463   2.239078   0.000000
     5  C    2.496723   2.937739   1.478428   3.650790   0.000000
     6  C    2.231587   3.546025   1.377535   2.251058   2.584610
     7  C    2.234633   3.558440   2.251539   1.378489   3.705103
     8  C    2.239802   1.301844   3.544171   2.724905   4.231356
     9  C    2.386869   2.850218   3.555213   1.411161   4.866650
    10  C    2.711570   2.477524   4.072336   2.377188   5.129121
    11  C    3.624400   2.403073   4.823332   4.210070   5.214956
    12  C    3.346891   3.601473   2.507402   4.459561   1.531448
    13  C    4.701138   3.616036   5.972905   5.024793   6.472421
    14  C    4.213503   2.874771   5.182419   5.082441   5.212954
    15  C    5.973653   4.782064   7.189021   6.393816   7.521332
    16  C    5.597689   4.248998   6.546724   6.438984   6.469023
    17  C    6.348218   5.035484   7.434536   6.998969   7.519747
    18  H    2.678365   2.644210   2.133491   3.984276   1.096363
    19  H    3.333112   3.917254   2.111235   4.313639   1.097286
    20  H    3.275317   4.544052   2.192884   3.298559   2.963981
    21  H    3.279497   4.562827   3.298919   2.194846   4.720241
    22  H    3.374485   3.934680   4.404316   2.165587   5.795655
    23  H    3.791860   3.441102   5.152856   3.367056   6.191170
    24  H    3.767309   4.303482   2.777616   4.629249   2.179592
    25  H    4.292253   4.365207   3.446022   5.480493   2.168157
    26  H    3.190423   3.168892   2.791362   4.314584   2.179368
    27  H    4.807431   3.953668   6.128334   4.858118   6.822732
    28  H    3.895886   2.631306   4.649576   4.942399   4.484839
    29  H    6.846182   5.723316   8.095845   7.138345   8.496925
    30  H    6.256396   4.919864   7.062011   7.210038   6.785886
    31  H    7.421688   6.098022   8.481615   8.084812   8.495607
                    6          7          8          9         10
     6  C    0.000000
     7  C    1.415506   0.000000
     8  C    4.444776   4.064085   0.000000
     9  C    3.651957   2.570767   2.422077   0.000000
    10  C    4.554538   3.720006   1.495611   1.338467   0.000000
    11  C    5.855407   5.549247   1.486400   3.747485   2.536813
    12  C    3.438900   4.519691   4.828225   5.596487   5.781504
    13  C    6.888412   6.392993   2.495942   4.245615   2.931208
    14  C    6.381018   6.330913   2.495356   4.868633   3.766511
    15  C    8.188331   7.761128   3.777444   5.627468   4.301296
    16  C    7.766035   7.709823   3.776814   6.111030   4.908599
    17  C    8.571900   8.337808   4.276155   6.428619   5.123628
    18  H    3.399841   4.326936   3.910908   5.013303   5.023397
    19  H    2.773692   4.079357   5.192093   5.616060   6.007172
    20  H    1.081273   2.237361   5.506498   4.678328   5.629439
    21  H    2.237369   1.081428   4.911377   3.000953   4.297741
    22  H    4.217177   2.913550   3.428989   1.084714   2.108027
    23  H    5.589936   4.651452   2.264942   2.104235   1.081528
    24  H    3.288129   4.414019   5.475367   5.841028   6.223903
    25  H    4.393079   5.548362   5.598640   6.597222   6.685287
    26  H    3.833300   4.641294   4.259027   5.250813   5.262784
    27  H    6.872100   6.197948   2.746292   3.887037   2.655543
    28  H    5.912283   6.061480   2.726158   5.004626   4.110058
    29  H    9.027821   8.502693   4.648905   6.244647   4.940234
    30  H    8.338708   8.419334   4.647947   7.005467   5.859982
    31  H    9.640557   9.423516   5.362158   7.493969   6.178761
                   11         12         13         14         15
    11  C    0.000000
    12  C    5.662622   0.000000
    13  C    1.394808   7.026373   0.000000
    14  C    1.394793   5.378940   2.415794   0.000000
    15  C    2.416156   7.971531   1.394994   2.789780   0.000000
    16  C    2.415910   6.565302   2.789602   1.394761   2.416055
    17  C    2.789756   7.772395   2.415898   2.415959   1.394809
    18  H    4.667211   2.156996   5.891783   4.571176   6.838021
    19  H    6.197006   2.147557   7.402604   6.221040   8.455495
    20  H    6.894669   3.688751   7.950116   7.347320   9.236971
    21  H    6.391721   5.484154   7.114076   7.264045   8.501793
    22  H    4.640847   6.512650   4.931489   5.822617   6.282405
    23  H    2.768402   6.792550   2.675356   4.064305   3.937856
    24  H    6.444429   1.095257   7.794103   6.253972   8.806261
    25  H    6.252973   1.094458   7.620195   5.776206   8.444121
    26  H    4.967735   1.095208   6.355960   4.588596   7.245542
    27  H    2.179082   7.520414   1.085654   3.415106   2.127007
    28  H    2.168508   4.448558   3.409413   1.086858   3.876415
    29  H    3.400589   9.012154   2.154647   3.875852   1.086097
    30  H    3.400250   6.699146   3.875694   2.154226   3.400139
    31  H    3.875759   8.697707   3.400088   3.400086   2.153972
                   16         17         18         19         20
    16  C    0.000000
    17  C    1.394971   0.000000
    18  H    5.739049   6.772633   0.000000
    19  H    7.442629   8.472920   1.750241   0.000000
    20  H    8.723246   9.579400   3.904544   2.781395   0.000000
    21  H    8.627451   9.175528   5.381836   4.987027   2.710327
    22  H    7.003578   7.199512   6.021891   6.470819   5.145849
    23  H    4.986690   4.935684   6.036342   7.080691   6.656160
    24  H    7.477211   8.667677   3.074912   2.507933   3.307045
    25  H    6.826035   8.097217   2.473925   2.469032   4.522096
    26  H    5.757626   6.990875   2.525890   3.068534   4.302507
    27  H    3.874085   3.382120   6.318242   7.695603   7.939960
    28  H    2.140460   3.391825   3.896324   5.509205   6.804480
    29  H    3.400079   2.153754   7.810296   9.403887  10.085595
    30  H    1.086092   2.154017   6.038443   7.735853   9.237458
    31  H    2.154121   1.086004   7.710124   9.433343  10.638958
                   21         22         23         24         25
    21  H    0.000000
    22  H    2.946452   0.000000
    23  H    5.089533   2.437718   0.000000
    24  H    5.247732   6.641760   7.237980   0.000000
    25  H    6.514604   7.545859   7.678374   1.774106   0.000000
    26  H    5.623296   6.193498   6.201180   1.771611   1.774087
    27  H    6.795342   4.397976   2.171505   8.216115   8.200619
    28  H    7.051481   6.018059   4.613843   5.339157   4.785031
    29  H    9.170538   6.772822   4.398444   9.834764   9.500602
    30  H    9.376617   7.930175   5.997481   7.631462   6.807688
    31  H   10.260128   8.236482   5.922330   9.613278   8.948255
                   26         27         28         29         30
    26  H    0.000000
    27  H    6.924800   0.000000
    28  H    3.620680   4.331584   0.000000
    29  H    8.303619   2.440564   4.962475   0.000000
    30  H    5.877189   4.960083   2.459747   4.296743   0.000000
    31  H    7.905628   4.272299   4.284986   2.480362   2.480707
                   31
    31  H    0.000000
 Stoichiometry    C15H14N2
 Framework group  C1[X(C15H14N2)]
 Deg. of freedom    87
 Full point group                 C1      NOp   1
 Largest Abelian subgroup         C1      NOp   1
 Largest concise Abelian subgroup C1      NOp   1
                         Standard orientation:                         
 ---------------------------------------------------------------------
 Center     Atomic      Atomic             Coordinates (Angstroms)
 Number     Number       Type             X           Y           Z
 ---------------------------------------------------------------------
      1          7           0        1.599857   -0.217531    0.135016
      2          7           0        0.340388    0.301431    0.186089
      3          6           0        2.751365    0.501629    0.352474
      4          6           0        1.940525   -1.527985   -0.134023
      5          6           0        2.726739    1.946225    0.665977
      6          6           0        3.825677   -0.350969    0.223888
      7          6           0        3.313986   -1.634376   -0.083838
      8          6           0       -0.606028   -0.562643   -0.042979
      9          6           0        0.890627   -2.434330   -0.394076
     10          6           0       -0.376907   -2.005502   -0.363159
     11          6           0       -2.020019   -0.105751   -0.007413
     12          6           0        2.789557    2.826667   -0.585505
     13          6           0       -3.031360   -0.993579    0.359250
     14          6           0       -2.335329    1.211737   -0.339450
     15          6           0       -4.358115   -0.564015    0.393973
     16          6           0       -3.661777    1.641491   -0.304724
     17          6           0       -4.673222    0.753566    0.062037
     18          1           0        1.834457    2.207846    1.246837
     19          1           0        3.583619    2.191418    1.306035
     20          1           0        4.865942   -0.078967    0.337966
     21          1           0        3.886479   -2.536304   -0.251965
     22          1           0        1.117344   -3.467450   -0.634636
     23          1           0       -1.189020   -2.678730   -0.601782
     24          1           0        3.700370    2.628795   -1.160704
     25          1           0        2.785267    3.884340   -0.304173
     26          1           0        1.930566    2.642560   -1.239508
     27          1           0       -2.827243   -2.016466    0.660386
     28          1           0       -1.565272    1.919628   -0.634684
     29          1           0       -5.145029   -1.252609    0.687590
     30          1           0       -3.907653    2.667054   -0.564267
     31          1           0       -5.705861    1.088598    0.090587
 ---------------------------------------------------------------------
 Rotational constants (GHZ):           0.9785067           0.2880144           0.2287336
 Leave Link  202 at Wed Dec  6 10:02:05 2023, MaxMem=  2147483648 cpu:               1.4 elap:               0.1
 (Enter /opt/gaussian/g16-c01/g16/l301.exe)
 Standard basis: 6-311++G(d,p) (5D, 7F)
 Ernie: Thresh=  0.10000D-02 Tol=  0.10000D-05 Strict=F.
 There are   489 symmetry adapted cartesian basis functions of A   symmetry.
 There are   472 symmetry adapted basis functions of A   symmetry.
   472 basis functions,   738 primitive gaussians,   489 cartesian basis functions
    59 alpha electrons       59 beta electrons
       nuclear repulsion energy      1096.9705028174 Hartrees.
 IExCor= 7252 DFT=T Ex+Corr=MN15 ExCW=0 ScaHFX=  0.440000
 ScaDFX=  1.000000  1.000000  1.000000  1.000000 ScalE2=  1.000000  1.000000
 IRadAn=      5 IRanWt=     -1 IRanGd=            0 ICorTp=0 IEmpDi=  4
 NAtoms=   31 NActive=   31 NUniq=   31 SFac= 1.00D+00 NAtFMM=   60 NAOKFM=F Big=F
 Integral buffers will be    131072 words long.
 Raffenetti 2 integral format.
 Two-electron integral symmetry is turned on.
 Leave Link  301 at Wed Dec  6 10:02:05 2023, MaxMem=  2147483648 cpu:               1.6 elap:               0.1
 (Enter /opt/gaussian/g16-c01/g16/l302.exe)
 NPDir=0 NMtPBC=     1 NCelOv=     1 NCel=       1 NClECP=     1 NCelD=      1
         NCelK=      1 NCelE2=     1 NClLst=     1 CellRange=     0.0.
 One-electron integrals computed using PRISM.
 One-electron integral symmetry used in STVInt
 NBasis=   472 RedAO= T EigKep=  1.07D-06  NBF=   472
 NBsUse=   469 1.00D-06 EigRej=  7.40D-07 NBFU=   469
 Precomputing XC quadrature grid using
 IXCGrd= 4 IRadAn=           5 IRanWt=          -1 IRanGd=           0 AccXCQ= 0.00D+00.
 Generated NRdTot=       0 NPtTot=           0 NUsed=           0 NTot=          32
 NSgBfM=   489   489   489   489   489 MxSgAt=    31 MxSgA2=    31.
 Leave Link  302 at Wed Dec  6 10:04:13 2023, MaxMem=  2147483648 cpu:            3183.8 elap:             127.7
 (Enter /opt/gaussian/g16-c01/g16/l303.exe)
 DipDrv:  MaxL=1.
 Leave Link  303 at Wed Dec  6 10:04:15 2023, MaxMem=  2147483648 cpu:              63.5 elap:               2.7
 (Enter /opt/gaussian/g16-c01/g16/l401.exe)
 ExpMin= 3.60D-02 ExpMax= 6.29D+03 ExpMxC= 9.49D+02 IAcc=3 IRadAn=         5 AccDes= 0.00D+00
 Harris functional with IExCor= 1009 and IRadAn=       5 diagonalized for initial guess.
 HarFok:  IExCor= 1009 AccDes= 0.00D+00 IRadAn=         5 IDoV= 1 UseB2=F ITyADJ=14
 ICtDFT=  3500011 ScaDFX=  1.000000  1.000000  1.000000  1.000000
 FoFCou: FMM=F IPFlag=           0 FMFlag=      100000 FMFlg1=           0
         NFxFlg=           0 DoJE=T BraDBF=F KetDBF=T FulRan=T
         wScrn=  0.000000 ICntrl=       500 IOpCl=  0 I1Cent=   200000004 NGrid=           0
         NMat0=    1 NMatS0=      1 NMatT0=    0 NMatD0=    1 NMtDS0=    0 NMtDT0=    0
 Petite list used in FoFCou.
 Harris En= -689.083250496610    
 JPrj=0 DoOrth=F DoCkMO=F.
 Leave Link  401 at Wed Dec  6 10:05:11 2023, MaxMem=  2147483648 cpu:            1313.9 elap:              52.8
 (Enter /opt/gaussian/g16-c01/g16/l502.exe)
 Integral symmetry usage will be decided dynamically.
 Closed shell SCF:
 Using DIIS extrapolation, IDIIS=  1040.
 NGot=  2147483648 LenX=  2146987274 LenY=  2146747664
 Requested convergence on RMS density matrix=1.00D-08 within 128 cycles.
 Requested convergence on MAX density matrix=1.00D-06.
 Requested convergence on             energy=1.00D-06.
 No special actions if energy rises.
 Fock matrices will be formed incrementally for  20 cycles.

 Cycle   1  Pass 1  IDiag  1:
 FoFJK:  IHMeth= 1 ICntrl=       0 DoSepK=F KAlg= 0 I1Cent=           0 FoldK=F
 IRaf= 850000000 NMat=       1 IRICut=       1 DoRegI=T DoRafI=F ISym2E= 0 IDoP0=0 IntGTp=1.
 FoFCou: FMM=F IPFlag=           0 FMFlag=      100000 FMFlg1=           0
         NFxFlg=           0 DoJE=F BraDBF=F KetDBF=F FulRan=T
         wScrn=  0.000000 ICntrl=         0 IOpCl=  0 I1Cent=           0 NGrid=           0
         NMat0=    1 NMatS0=      1 NMatT0=    0 NMatD0=    1 NMtDS0=    0 NMtDT0=    0
 Symmetry not used in FoFCou.
 E= -688.383020338509    
 DIIS: error= 1.91D-02 at cycle   1 NSaved=   1.
 NSaved= 1 IEnMin= 1 EnMin= -688.383020338509     IErMin= 1 ErrMin= 1.91D-02
 ErrMax= 1.91D-02  0.00D+00 EMaxC= 1.00D-01 BMatC= 4.71D-01 BMatP= 4.71D-01
 IDIUse=3 WtCom= 8.09D-01 WtEn= 1.91D-01
 Coeff-Com:  0.100D+01
 Coeff-En:   0.100D+01
 Coeff:      0.100D+01
 Gap=     0.177 Goal=   None    Shift=    0.000
 GapD=    0.177 DampG=1.000 DampE=0.500 DampFc=0.5000 IDamp=-1.
 Damping current iteration by 5.00D-01
 RMSDP=2.20D-02 MaxDP=1.19D+00              OVMax= 2.68D-01

 Cycle   2  Pass 1  IDiag  1:
 RMSU=  9.73D-03    CP:  9.24D-01
 E= -688.572781734241     Delta-E=       -0.189761395731 Rises=F Damp=T
 DIIS: error= 7.17D-03 at cycle   2 NSaved=   2.
 NSaved= 2 IEnMin= 2 EnMin= -688.572781734241     IErMin= 2 ErrMin= 7.17D-03
 ErrMax= 7.17D-03  0.00D+00 EMaxC= 1.00D-01 BMatC= 5.02D-02 BMatP= 4.71D-01
 IDIUse=3 WtCom= 9.28D-01 WtEn= 7.17D-02
 Coeff-Com:  0.180D-01 0.982D+00
 Coeff-En:   0.693D-01 0.931D+00
 Coeff:      0.216D-01 0.978D+00
 Gap=     0.217 Goal=   None    Shift=    0.000
 RMSDP=2.20D-02 MaxDP=3.61D+00 DE=-1.90D-01 OVMax= 2.65D-01

 Cycle   3  Pass 1  IDiag  1:
 RMSU=  7.26D-03    CP:  6.35D-01  3.18D-01
 E= -688.766911121140     Delta-E=       -0.194129386900 Rises=F Damp=F
 DIIS: error= 1.03D-02 at cycle   3 NSaved=   3.
 NSaved= 3 IEnMin= 3 EnMin= -688.766911121140     IErMin= 2 ErrMin= 7.17D-03
 ErrMax= 1.03D-02  0.00D+00 EMaxC= 1.00D-01 BMatC= 4.39D-02 BMatP= 5.02D-02
 IDIUse=3 WtCom= 8.97D-01 WtEn= 1.03D-01
 Coeff-Com: -0.758D-01 0.518D+00 0.558D+00
 Coeff-En:   0.000D+00 0.000D+00 0.100D+01
 Coeff:     -0.680D-01 0.465D+00 0.603D+00
 Gap=     0.197 Goal=   None    Shift=    0.000
 RMSDP=4.41D-03 MaxDP=2.83D-01 DE=-1.94D-01 OVMax= 9.04D-02

 Cycle   4  Pass 1  IDiag  1:
 RMSU=  3.29D-03    CP:  6.10D-01  5.14D-01  8.01D-01
 E= -688.799448070846     Delta-E=       -0.032536949705 Rises=F Damp=F
 DIIS: error= 4.37D-03 at cycle   4 NSaved=   4.
 NSaved= 4 IEnMin= 4 EnMin= -688.799448070846     IErMin= 4 ErrMin= 4.37D-03
 ErrMax= 4.37D-03  0.00D+00 EMaxC= 1.00D-01 BMatC= 1.02D-02 BMatP= 4.39D-02
 IDIUse=3 WtCom= 9.56D-01 WtEn= 4.37D-02
 Coeff-Com: -0.268D-01 0.105D+00 0.351D+00 0.570D+00
 Coeff-En:   0.000D+00 0.000D+00 0.210D+00 0.790D+00
 Coeff:     -0.256D-01 0.101D+00 0.345D+00 0.580D+00
 Gap=     0.194 Goal=   None    Shift=    0.000
 RMSDP=1.61D-03 MaxDP=1.19D-01 DE=-3.25D-02 OVMax= 3.03D-02

 Cycle   5  Pass 1  IDiag  1:
 RMSU=  9.55D-04    CP:  6.02D-01  5.17D-01  8.55D-01  6.62D-01
 E= -688.808736181336     Delta-E=       -0.009288110490 Rises=F Damp=F
 DIIS: error= 6.00D-04 at cycle   5 NSaved=   5.
 NSaved= 5 IEnMin= 5 EnMin= -688.808736181336     IErMin= 5 ErrMin= 6.00D-04
 ErrMax= 6.00D-04  0.00D+00 EMaxC= 1.00D-01 BMatC= 2.84D-04 BMatP= 1.02D-02
 IDIUse=3 WtCom= 9.94D-01 WtEn= 6.00D-03
 Coeff-Com: -0.784D-02 0.233D-01 0.134D+00 0.268D+00 0.583D+00
 Coeff-En:   0.000D+00 0.000D+00 0.000D+00 0.000D+00 0.100D+01
 Coeff:     -0.779D-02 0.231D-01 0.133D+00 0.266D+00 0.585D+00
 Gap=     0.196 Goal=   None    Shift=    0.000
 RMSDP=7.12D-04 MaxDP=1.13D-01 DE=-9.29D-03 OVMax= 5.95D-03

 Cycle   6  Pass 1  IDiag  1:
 RMSU=  3.55D-04    CP:  5.95D-01  4.85D-01  8.76D-01  6.46D-01  8.13D-01
 E= -688.808964005464     Delta-E=       -0.000227824128 Rises=F Damp=F
 DIIS: error= 3.11D-04 at cycle   6 NSaved=   6.
 NSaved= 6 IEnMin= 6 EnMin= -688.808964005464     IErMin= 6 ErrMin= 3.11D-04
 ErrMax= 3.11D-04  0.00D+00 EMaxC= 1.00D-01 BMatC= 4.96D-05 BMatP= 2.84D-04
 IDIUse=3 WtCom= 9.97D-01 WtEn= 3.11D-03
 Coeff-Com: -0.746D-03-0.141D-03 0.295D-01 0.698D-01 0.323D+00 0.578D+00
 Coeff-En:   0.000D+00 0.000D+00 0.000D+00 0.000D+00 0.117D+00 0.883D+00
 Coeff:     -0.744D-03-0.141D-03 0.294D-01 0.696D-01 0.323D+00 0.579D+00
 Gap=     0.195 Goal=   None    Shift=    0.000
 RMSDP=2.61D-04 MaxDP=4.30D-02 DE=-2.28D-04 OVMax= 3.61D-03

 Cycle   7  Pass 1  IDiag  1:
 RMSU=  8.84D-05    CP:  5.98D-01  4.92D-01  8.77D-01  6.58D-01  7.91D-01
                    CP:  6.69D-01
 E= -688.809011611379     Delta-E=       -0.000047605915 Rises=F Damp=F
 DIIS: error= 1.02D-04 at cycle   7 NSaved=   7.
 NSaved= 7 IEnMin= 7 EnMin= -688.809011611379     IErMin= 7 ErrMin= 1.02D-04
 ErrMax= 1.02D-04  0.00D+00 EMaxC= 1.00D-01 BMatC= 4.92D-06 BMatP= 4.96D-05
 IDIUse=3 WtCom= 9.99D-01 WtEn= 1.02D-03
 Coeff-Com:  0.825D-03-0.350D-02-0.224D-02-0.544D-03 0.883D-01 0.293D+00
 Coeff-Com:  0.625D+00
 Coeff-En:   0.000D+00 0.000D+00 0.000D+00 0.000D+00 0.000D+00 0.000D+00
 Coeff-En:   0.100D+01
 Coeff:      0.824D-03-0.350D-02-0.224D-02-0.544D-03 0.882D-01 0.292D+00
 Coeff:      0.625D+00
 Gap=     0.196 Goal=   None    Shift=    0.000
 RMSDP=5.20D-05 MaxDP=5.67D-03 DE=-4.76D-05 OVMax= 9.43D-04

 Cycle   8  Pass 1  IDiag  1:
 RMSU=  3.12D-05    CP:  5.97D-01  4.93D-01  8.76D-01  6.58D-01  8.03D-01
                    CP:  7.17D-01  9.51D-01
 E= -688.809016980368     Delta-E=       -0.000005368988 Rises=F Damp=F
 DIIS: error= 3.36D-05 at cycle   8 NSaved=   8.
 NSaved= 8 IEnMin= 8 EnMin= -688.809016980368     IErMin= 8 ErrMin= 3.36D-05
 ErrMax= 3.36D-05  0.00D+00 EMaxC= 1.00D-01 BMatC= 5.43D-07 BMatP= 4.92D-06
 IDIUse=1 WtCom= 1.00D+00 WtEn= 0.00D+00
 Coeff-Com:  0.595D-03-0.192D-02-0.546D-02-0.112D-01-0.497D-02 0.609D-01
 Coeff-Com:  0.287D+00 0.675D+00
 Coeff:      0.595D-03-0.192D-02-0.546D-02-0.112D-01-0.497D-02 0.609D-01
 Coeff:      0.287D+00 0.675D+00
 Gap=     0.196 Goal=   None    Shift=    0.000
 RMSDP=1.92D-05 MaxDP=1.46D-03 DE=-5.37D-06 OVMax= 4.00D-04

 Cycle   9  Pass 1  IDiag  1:
 RMSU=  1.11D-05    CP:  5.97D-01  4.93D-01  8.77D-01  6.57D-01  8.13D-01
                    CP:  7.37D-01  1.03D+00  8.54D-01
 E= -688.809017664562     Delta-E=       -0.000000684195 Rises=F Damp=F
 DIIS: error= 1.75D-05 at cycle   9 NSaved=   9.
 NSaved= 9 IEnMin= 9 EnMin= -688.809017664562     IErMin= 9 ErrMin= 1.75D-05
 ErrMax= 1.75D-05  0.00D+00 EMaxC= 1.00D-01 BMatC= 8.63D-08 BMatP= 5.43D-07
 IDIUse=1 WtCom= 1.00D+00 WtEn= 0.00D+00
 Coeff-Com:  0.214D-03-0.571D-03-0.223D-02-0.520D-02-0.121D-01 0.527D-04
 Coeff-Com:  0.657D-01 0.326D+00 0.628D+00
 Coeff:      0.214D-03-0.571D-03-0.223D-02-0.520D-02-0.121D-01 0.527D-04
 Coeff:      0.657D-01 0.326D+00 0.628D+00
 Gap=     0.196 Goal=   None    Shift=    0.000
 RMSDP=6.38D-06 MaxDP=3.80D-04 DE=-6.84D-07 OVMax= 2.19D-04

 Cycle  10  Pass 1  IDiag  1:
 RMSU=  4.15D-06    CP:  5.97D-01  4.93D-01  8.77D-01  6.56D-01  8.13D-01
                    CP:  7.42D-01  1.04D+00  9.22D-01  9.19D-01
 E= -688.809017796981     Delta-E=       -0.000000132418 Rises=F Damp=F
 DIIS: error= 4.89D-06 at cycle  10 NSaved=  10.
 NSaved=10 IEnMin=10 EnMin= -688.809017796981     IErMin=10 ErrMin= 4.89D-06
 ErrMax= 4.89D-06  0.00D+00 EMaxC= 1.00D-01 BMatC= 1.86D-08 BMatP= 8.63D-08
 IDIUse=1 WtCom= 1.00D+00 WtEn= 0.00D+00
 Coeff-Com: -0.570D-04 0.244D-03 0.460D-03 0.590D-03-0.495D-02-0.159D-01
 Coeff-Com: -0.506D-01-0.427D-01 0.317D+00 0.796D+00
 Coeff:     -0.570D-04 0.244D-03 0.460D-03 0.590D-03-0.495D-02-0.159D-01
 Coeff:     -0.506D-01-0.427D-01 0.317D+00 0.796D+00
 Gap=     0.196 Goal=   None    Shift=    0.000
 RMSDP=5.03D-06 MaxDP=5.64D-04 DE=-1.32D-07 OVMax= 1.20D-04

 Cycle  11  Pass 1  IDiag  1:
 RMSU=  1.92D-06    CP:  5.97D-01  4.93D-01  8.77D-01  6.57D-01  8.13D-01
                    CP:  7.43D-01  1.04D+00  9.61D-01  1.11D+00  1.17D+00
 E= -688.809017828660     Delta-E=       -0.000000031680 Rises=F Damp=F
 DIIS: error= 1.72D-06 at cycle  11 NSaved=  11.
 NSaved=11 IEnMin=11 EnMin= -688.809017828660     IErMin=11 ErrMin= 1.72D-06
 ErrMax= 1.72D-06  0.00D+00 EMaxC= 1.00D-01 BMatC= 1.47D-09 BMatP= 1.86D-08
 IDIUse=1 WtCom= 1.00D+00 WtEn= 0.00D+00
 Coeff-Com: -0.477D-04 0.169D-03 0.415D-03 0.728D-03-0.137D-02-0.742D-02
 Coeff-Com: -0.288D-01-0.506D-01 0.102D+00 0.351D+00 0.634D+00
 Coeff:     -0.477D-04 0.169D-03 0.415D-03 0.728D-03-0.137D-02-0.742D-02
 Coeff:     -0.288D-01-0.506D-01 0.102D+00 0.351D+00 0.634D+00
 Gap=     0.196 Goal=   None    Shift=    0.000
 RMSDP=8.02D-07 MaxDP=1.04D-04 DE=-3.17D-08 OVMax= 3.34D-05

 Cycle  12  Pass 1  IDiag  1:
 RMSU=  4.75D-07    CP:  5.97D-01  4.93D-01  8.77D-01  6.57D-01  8.14D-01
                    CP:  7.43D-01  1.04D+00  9.66D-01  1.12D+00  1.22D+00
                    CP:  9.54D-01
 E= -688.809017830897     Delta-E=       -0.000000002237 Rises=F Damp=F
 DIIS: error= 4.90D-07 at cycle  12 NSaved=  12.
 NSaved=12 IEnMin=12 EnMin= -688.809017830897     IErMin=12 ErrMin= 4.90D-07
 ErrMax= 4.90D-07  0.00D+00 EMaxC= 1.00D-01 BMatC= 2.01D-10 BMatP= 1.47D-09
 IDIUse=1 WtCom= 1.00D+00 WtEn= 0.00D+00
 Coeff-Com: -0.104D-04 0.259D-04 0.890D-04 0.199D-03 0.355D-03 0.982D-04
 Coeff-Com: -0.151D-02-0.130D-01-0.147D-01-0.196D-01 0.253D+00 0.795D+00
 Coeff:     -0.104D-04 0.259D-04 0.890D-04 0.199D-03 0.355D-03 0.982D-04
 Coeff:     -0.151D-02-0.130D-01-0.147D-01-0.196D-01 0.253D+00 0.795D+00
 Gap=     0.196 Goal=   None    Shift=    0.000
 RMSDP=4.43D-07 MaxDP=2.41D-05 DE=-2.24D-09 OVMax= 1.53D-05

 Cycle  13  Pass 1  IDiag  1:
 RMSU=  2.07D-07    CP:  5.97D-01  4.93D-01  8.77D-01  6.57D-01  8.14D-01
                    CP:  7.43D-01  1.04D+00  9.64D-01  1.14D+00  1.24D+00
                    CP:  1.03D+00  1.11D+00
 E= -688.809017831249     Delta-E=       -0.000000000352 Rises=F Damp=F
 DIIS: error= 1.39D-07 at cycle  13 NSaved=  13.
 NSaved=13 IEnMin=13 EnMin= -688.809017831249     IErMin=13 ErrMin= 1.39D-07
 ErrMax= 1.39D-07  0.00D+00 EMaxC= 1.00D-01 BMatC= 1.51D-11 BMatP= 2.01D-10
 IDIUse=1 WtCom= 1.00D+00 WtEn= 0.00D+00
 Coeff-Com:  0.649D-06-0.628D-05-0.112D-04-0.862D-06 0.199D-03 0.716D-03
 Coeff-Com:  0.219D-02 0.471D-03-0.124D-01-0.371D-01 0.264D-01 0.246D+00
 Coeff-Com:  0.773D+00
 Coeff:      0.649D-06-0.628D-05-0.112D-04-0.862D-06 0.199D-03 0.716D-03
 Coeff:      0.219D-02 0.471D-03-0.124D-01-0.371D-01 0.264D-01 0.246D+00
 Coeff:      0.773D+00
 Gap=     0.196 Goal=   None    Shift=    0.000
 RMSDP=1.50D-07 MaxDP=8.46D-06 DE=-3.52D-10 OVMax= 4.73D-06

 Cycle  14  Pass 1  IDiag  1:
 RMSU=  8.56D-08    CP:  5.97D-01  4.93D-01  8.77D-01  6.57D-01  8.14D-01
                    CP:  7.43D-01  1.04D+00  9.65D-01  1.14D+00  1.25D+00
                    CP:  1.07D+00  1.17D+00  1.15D+00
 E= -688.809017831310     Delta-E=       -0.000000000061 Rises=F Damp=F
 DIIS: error= 8.00D-08 at cycle  14 NSaved=  14.
 NSaved=14 IEnMin=14 EnMin= -688.809017831310     IErMin=14 ErrMin= 8.00D-08
 ErrMax= 8.00D-08  0.00D+00 EMaxC= 1.00D-01 BMatC= 4.81D-12 BMatP= 1.51D-11
 IDIUse=1 WtCom= 1.00D+00 WtEn= 0.00D+00
 Coeff-Com:  0.152D-05-0.621D-05-0.176D-04-0.229D-04 0.476D-04 0.335D-03
 Coeff-Com:  0.128D-02 0.174D-02-0.477D-02-0.169D-01-0.205D-01 0.131D-01
 Coeff-Com:  0.397D+00 0.629D+00
 Coeff:      0.152D-05-0.621D-05-0.176D-04-0.229D-04 0.476D-04 0.335D-03
 Coeff:      0.128D-02 0.174D-02-0.477D-02-0.169D-01-0.205D-01 0.131D-01
 Coeff:      0.397D+00 0.629D+00
 Gap=     0.196 Goal=   None    Shift=    0.000
 RMSDP=4.22D-08 MaxDP=2.05D-06 DE=-6.09D-11 OVMax= 1.72D-06

 Cycle  15  Pass 1  IDiag  1:
 RMSU=  2.40D-08    CP:  5.97D-01  4.93D-01  8.77D-01  6.57D-01  8.14D-01
                    CP:  7.43D-01  1.04D+00  9.64D-01  1.14D+00  1.25D+00
                    CP:  1.07D+00  1.21D+00  1.22D+00  1.06D+00
 E= -688.809017831295     Delta-E=        0.000000000015 Rises=F Damp=F
 DIIS: error= 3.35D-08 at cycle  15 NSaved=  15.
 NSaved=15 IEnMin=14 EnMin= -688.809017831310     IErMin=15 ErrMin= 3.35D-08
 ErrMax= 3.35D-08  0.00D+00 EMaxC= 1.00D-01 BMatC= 4.45D-13 BMatP= 4.81D-12
 IDIUse=1 WtCom= 1.00D+00 WtEn= 0.00D+00
 Coeff-Com:  0.444D-06-0.123D-05-0.582D-05-0.843D-05-0.199D-04 0.132D-04
 Coeff-Com:  0.159D-03 0.613D-03 0.475D-03 0.421D-03-0.112D-01-0.394D-01
 Coeff-Com:  0.294D-01 0.201D+00 0.819D+00
 Coeff:      0.444D-06-0.123D-05-0.582D-05-0.843D-05-0.199D-04 0.132D-04
 Coeff:      0.159D-03 0.613D-03 0.475D-03 0.421D-03-0.112D-01-0.394D-01
 Coeff:      0.294D-01 0.201D+00 0.819D+00
 Gap=     0.196 Goal=   None    Shift=    0.000
 RMSDP=2.39D-08 MaxDP=2.50D-06 DE= 1.50D-11 OVMax= 7.44D-07

 Cycle  16  Pass 1  IDiag  1:
 RMSU=  1.18D-08    CP:  5.97D-01  4.93D-01  8.77D-01  6.57D-01  8.14D-01
                    CP:  7.43D-01  1.04D+00  9.64D-01  1.14D+00  1.25D+00
                    CP:  1.07D+00  1.22D+00  1.26D+00  1.10D+00  1.05D+00
 E= -688.809017831303     Delta-E=       -0.000000000008 Rises=F Damp=F
 DIIS: error= 1.04D-08 at cycle  16 NSaved=  16.
 NSaved=16 IEnMin=14 EnMin= -688.809017831310     IErMin=16 ErrMin= 1.04D-08
 ErrMax= 1.04D-08  0.00D+00 EMaxC= 1.00D-01 BMatC= 7.98D-14 BMatP= 4.45D-13
 IDIUse=1 WtCom= 1.00D+00 WtEn= 0.00D+00
 Coeff-Com:  0.165D-08 0.169D-06-0.779D-06-0.100D-05-0.148D-04-0.329D-04
 Coeff-Com: -0.734D-04 0.423D-04 0.642D-03 0.206D-02-0.199D-02-0.188D-01
 Coeff-Com: -0.298D-01-0.307D-02 0.354D+00 0.697D+00
 Coeff:      0.165D-08 0.169D-06-0.779D-06-0.100D-05-0.148D-04-0.329D-04
 Coeff:     -0.734D-04 0.423D-04 0.642D-03 0.206D-02-0.199D-02-0.188D-01
 Coeff:     -0.298D-01-0.307D-02 0.354D+00 0.697D+00
 Gap=     0.196 Goal=   None    Shift=    0.000
 RMSDP=6.79D-09 MaxDP=4.08D-07 DE=-8.19D-12 OVMax= 2.38D-07

 SCF Done:  E(RMN15) =  -688.809017831     A.U. after   16 cycles
            NFock= 16  Conv=0.68D-08     -V/T= 2.0039
 KE= 6.861086833361D+02 PE=-3.793868887179D+03 EE= 1.321980683194D+03
 Leave Link  502 at Wed Dec  6 10:10:56 2023, MaxMem=  2147483648 cpu:            8554.8 elap:             340.5
 (Enter /opt/gaussian/g16-c01/g16/l601.exe)
 Copying SCF densities to generalized density rwf, IOpCl= 0 IROHF=0.

 **********************************************************************

            Population analysis using the SCF Density.

 **********************************************************************

 Orbital symmetries:
       Occupied  (A) (A) (A) (A) (A) (A) (A) (A) (A) (A) (A) (A)
                 (A) (A) (A) (A) (A) (A) (A) (A) (A) (A) (A) (A)
                 (A) (A) (A) (A) (A) (A) (A) (A) (A) (A) (A) (A)
                 (A) (A) (A) (A) (A) (A) (A) (A) (A) (A) (A) (A)
                 (A) (A) (A) (A) (A) (A) (A) (A) (A) (A) (A)
       Virtual   (A) (A) (A) (A) (A) (A) (A) (A) (A) (A) (A) (A)
                 (A) (A) (A) (A) (A) (A) (A) (A) (A) (A) (A) (A)
                 (A) (A) (A) (A) (A) (A) (A) (A) (A) (A) (A) (A)
                 (A) (A) (A) (A) (A) (A) (A) (A) (A) (A) (A) (A)
                 (A) (A) (A) (A) (A) (A) (A) (A) (A) (A) (A) (A)
                 (A) (A) (A) (A) (A) (A) (A) (A) (A) (A) (A) (A)
                 (A) (A) (A) (A) (A) (A) (A) (A) (A) (A) (A) (A)
                 (A) (A) (A) (A) (A) (A) (A) (A) (A) (A) (A) (A)
                 (A) (A) (A) (A) (A) (A) (A) (A) (A) (A) (A) (A)
                 (A) (A) (A) (A) (A) (A) (A) (A) (A) (A) (A) (A)
                 (A) (A) (A) (A) (A) (A) (A) (A) (A) (A) (A) (A)
                 (A) (A) (A) (A) (A) (A) (A) (A) (A) (A) (A) (A)
                 (A) (A) (A) (A) (A) (A) (A) (A) (A) (A) (A) (A)
                 (A) (A) (A) (A) (A) (A) (A) (A) (A) (A) (A) (A)
                 (A) (A) (A) (A) (A) (A) (A) (A) (A) (A) (A) (A)
                 (A) (A) (A) (A) (A) (A) (A) (A) (A) (A) (A) (A)
                 (A) (A) (A) (A) (A) (A) (A) (A) (A) (A) (A) (A)
                 (A) (A) (A) (A) (A) (A) (A) (A) (A) (A) (A) (A)
                 (A) (A) (A) (A) (A) (A) (A) (A) (A) (A) (A) (A)
                 (A) (A) (A) (A) (A) (A) (A) (A) (A) (A) (A) (A)
                 (A) (A) (A) (A) (A) (A) (A) (A) (A) (A) (A) (A)
                 (A) (A) (A) (A) (A) (A) (A) (A) (A) (A) (A) (A)
                 (A) (A) (A) (A) (A) (A) (A) (A) (A) (A) (A) (A)
                 (A) (A) (A) (A) (A) (A) (A) (A) (A) (A) (A) (A)
                 (A) (A) (A) (A) (A) (A) (A) (A) (A) (A) (A) (A)
                 (A) (A) (A) (A) (A) (A) (A) (A) (A) (A) (A) (A)
                 (A) (A) (A) (A) (A) (A) (A) (A) (A) (A) (A) (A)
                 (A) (A) (A) (A) (A) (A) (A) (A) (A) (A) (A) (A)
                 (A) (A) (A) (A) (A) (A) (A) (A) (A) (A) (A) (A)
                 (A) (A) (A) (A) (A) (A) (A) (A) (A) (A) (A) (A)
                 (A) (A) (A) (A) (A) (A) (A) (A) (A) (A) (A) (A)
                 (A) (A) (A) (A) (A) (A) (A) (A) (A) (A) (A) (A)
                 (A) (A) (A) (A) (A) (A) (A) (A) (A) (A) (A) (A)
                 (A) (A) (A) (A) (A) (A) (A) (A) (A) (A) (A) (A)
                 (A) (A)
 The electronic state is 1-A.
 Alpha  occ. eigenvalues --  -14.17540 -14.13487 -10.10266 -10.07220 -10.06503
 Alpha  occ. eigenvalues --  -10.06478 -10.06100 -10.05402 -10.05241 -10.05042
 Alpha  occ. eigenvalues --  -10.04968 -10.04904 -10.04836 -10.03818 -10.02914
 Alpha  occ. eigenvalues --  -10.02757 -10.02418  -1.10029  -0.96037  -0.91276
 Alpha  occ. eigenvalues --   -0.87708  -0.83583  -0.81787  -0.79945  -0.78585
 Alpha  occ. eigenvalues --   -0.75260  -0.70498  -0.67814  -0.65931  -0.64955
 Alpha  occ. eigenvalues --   -0.63487  -0.62342  -0.57983  -0.56144  -0.52900
 Alpha  occ. eigenvalues --   -0.52426  -0.51799  -0.49970  -0.49432  -0.49140
 Alpha  occ. eigenvalues --   -0.48126  -0.46965  -0.45833  -0.45678  -0.43966
 Alpha  occ. eigenvalues --   -0.43113  -0.42407  -0.41470  -0.39538  -0.39181
 Alpha  occ. eigenvalues --   -0.39075  -0.38509  -0.37526  -0.36220  -0.33731
 Alpha  occ. eigenvalues --   -0.30640  -0.29675  -0.26334  -0.23154
 Alpha virt. eigenvalues --   -0.03601  -0.00409   0.00665   0.03007   0.03881
 Alpha virt. eigenvalues --    0.03967   0.04572   0.05189   0.05323   0.06238
 Alpha virt. eigenvalues --    0.06584   0.06866   0.07517   0.07644   0.08673
 Alpha virt. eigenvalues --    0.08760   0.09415   0.09563   0.09843   0.10467
 Alpha virt. eigenvalues --    0.11429   0.11734   0.12009   0.12375   0.12854
 Alpha virt. eigenvalues --    0.13355   0.13738   0.13791   0.14101   0.14690
 Alpha virt. eigenvalues --    0.14854   0.14956   0.15528   0.15690   0.15858
 Alpha virt. eigenvalues --    0.16362   0.16506   0.16942   0.17283   0.17670
 Alpha virt. eigenvalues --    0.17731   0.17857   0.17999   0.18255   0.18797
 Alpha virt. eigenvalues --    0.18905   0.19694   0.19967   0.20228   0.20245
 Alpha virt. eigenvalues --    0.20408   0.20674   0.21286   0.21686   0.22036
 Alpha virt. eigenvalues --    0.22328   0.22551   0.22907   0.23349   0.23623
 Alpha virt. eigenvalues --    0.23959   0.24347   0.24565   0.24834   0.25126
 Alpha virt. eigenvalues --    0.25741   0.25947   0.26460   0.26541   0.27241
 Alpha virt. eigenvalues --    0.27530   0.27786   0.29010   0.29042   0.29519
 Alpha virt. eigenvalues --    0.29748   0.30080   0.30226   0.30326   0.31242
 Alpha virt. eigenvalues --    0.31471   0.31967   0.32065   0.32632   0.32989
 Alpha virt. eigenvalues --    0.33222   0.33383   0.33529   0.34214   0.34440
 Alpha virt. eigenvalues --    0.34925   0.35450   0.35631   0.36131   0.36520
 Alpha virt. eigenvalues --    0.36935   0.37126   0.37560   0.38186   0.38301
 Alpha virt. eigenvalues --    0.39089   0.39807   0.40012   0.40767   0.41430
 Alpha virt. eigenvalues --    0.41753   0.42737   0.44080   0.44622   0.45000
 Alpha virt. eigenvalues --    0.46301   0.46687   0.48787   0.49396   0.50591
 Alpha virt. eigenvalues --    0.52141   0.52949   0.55232   0.55645   0.55930
 Alpha virt. eigenvalues --    0.57125   0.57663   0.57814   0.58239   0.59078
 Alpha virt. eigenvalues --    0.59812   0.59971   0.60549   0.61232   0.62148
 Alpha virt. eigenvalues --    0.62187   0.63026   0.64109   0.64438   0.65320
 Alpha virt. eigenvalues --    0.65438   0.65609   0.66942   0.67425   0.68247
 Alpha virt. eigenvalues --    0.68756   0.70070   0.70610   0.71260   0.71990
 Alpha virt. eigenvalues --    0.72783   0.73706   0.74251   0.74763   0.74793
 Alpha virt. eigenvalues --    0.75488   0.76091   0.76828   0.77007   0.77586
 Alpha virt. eigenvalues --    0.78577   0.79206   0.80157   0.80616   0.81386
 Alpha virt. eigenvalues --    0.81662   0.82587   0.83825   0.83922   0.84677
 Alpha virt. eigenvalues --    0.84721   0.86508   0.87245   0.88332   0.89091
 Alpha virt. eigenvalues --    0.89624   0.91058   0.91405   0.92327   0.92501
 Alpha virt. eigenvalues --    0.93561   0.94191   0.94771   0.95629   0.95909
 Alpha virt. eigenvalues --    0.97725   0.97963   0.99208   0.99754   1.00666
 Alpha virt. eigenvalues --    1.01354   1.02190   1.03299   1.03499   1.04674
 Alpha virt. eigenvalues --    1.05000   1.06552   1.06989   1.08686   1.08712
 Alpha virt. eigenvalues --    1.11020   1.11430   1.12309   1.13066   1.13831
 Alpha virt. eigenvalues --    1.14546   1.15892   1.16958   1.18379   1.20391
 Alpha virt. eigenvalues --    1.21271   1.22139   1.24988   1.27022   1.31366
 Alpha virt. eigenvalues --    1.32549   1.33520   1.33828   1.37976   1.38376
 Alpha virt. eigenvalues --    1.44234   1.47316   1.49559   1.50510   1.50773
 Alpha virt. eigenvalues --    1.51969   1.52979   1.53922   1.54175   1.54575
 Alpha virt. eigenvalues --    1.55958   1.56533   1.57777   1.58833   1.58852
 Alpha virt. eigenvalues --    1.59535   1.60172   1.60960   1.61517   1.62281
 Alpha virt. eigenvalues --    1.64049   1.65443   1.65947   1.67544   1.67922
 Alpha virt. eigenvalues --    1.68312   1.69100   1.69475   1.72260   1.72951
 Alpha virt. eigenvalues --    1.73082   1.74150   1.74556   1.75747   1.75961
 Alpha virt. eigenvalues --    1.76898   1.78002   1.78662   1.80581   1.81334
 Alpha virt. eigenvalues --    1.82755   1.84117   1.86854   1.87289   1.87464
 Alpha virt. eigenvalues --    1.89348   1.90579   1.90838   1.91912   1.92997
 Alpha virt. eigenvalues --    1.93998   1.94538   1.95010   1.96418   1.97515
 Alpha virt. eigenvalues --    1.98582   1.99143   2.00065   2.00923   2.02680
 Alpha virt. eigenvalues --    2.03352   2.04838   2.05746   2.07089   2.08667
 Alpha virt. eigenvalues --    2.09852   2.11180   2.13074   2.13739   2.15991
 Alpha virt. eigenvalues --    2.19154   2.20532   2.22077   2.24464   2.25715
 Alpha virt. eigenvalues --    2.28812   2.31091   2.31611   2.32821   2.35041
 Alpha virt. eigenvalues --    2.37589   2.38487   2.39701   2.42092   2.43154
 Alpha virt. eigenvalues --    2.44059   2.44603   2.46513   2.47988   2.48734
 Alpha virt. eigenvalues --    2.50639   2.54346   2.55622   2.55931   2.58048
 Alpha virt. eigenvalues --    2.58638   2.59374   2.60596   2.63707   2.64892
 Alpha virt. eigenvalues --    2.65806   2.66202   2.66721   2.67933   2.68798
 Alpha virt. eigenvalues --    2.70234   2.70413   2.72128   2.72386   2.72545
 Alpha virt. eigenvalues --    2.73991   2.74899   2.75010   2.76274   2.77068
 Alpha virt. eigenvalues --    2.77169   2.77662   2.78836   2.79409   2.79786
 Alpha virt. eigenvalues --    2.80503   2.82594   2.83336   2.84031   2.85966
 Alpha virt. eigenvalues --    2.86510   2.88111   2.90076   2.91019   2.91498
 Alpha virt. eigenvalues --    2.94666   2.97439   3.01145   3.02023   3.04571
 Alpha virt. eigenvalues --    3.06454   3.11806   3.15497   3.16914   3.19851
 Alpha virt. eigenvalues --    3.23162   3.26858   3.28159   3.32506   3.34349
 Alpha virt. eigenvalues --    3.36337   3.37522   3.43857   3.46531   3.47906
 Alpha virt. eigenvalues --    3.48196   3.53479   3.55488   3.57284   3.65139
 Alpha virt. eigenvalues --    3.73989   3.74913   3.77222   3.79496   3.81725
 Alpha virt. eigenvalues --    3.85067   3.89564   3.92191   3.96019   3.98246
 Alpha virt. eigenvalues --    4.02684   4.07050   4.07364   4.10223   4.14636
 Alpha virt. eigenvalues --    4.18879   4.25416   4.30615   4.51173   4.60449
 Alpha virt. eigenvalues --    4.72202   5.03962   5.40616  22.52942  22.63277
 Alpha virt. eigenvalues --   22.74025  22.78546  22.81089  22.84416  22.85499
 Alpha virt. eigenvalues --   22.85959  22.89804  22.96041  22.97253  23.02191
 Alpha virt. eigenvalues --   23.06241  23.07791  23.11849  33.84500  33.90823
          Condensed to atoms (all electrons):
               1          2          3          4          5          6
     1  N    8.524666  -1.216300  -0.136318  -0.113663  -0.365514   0.261918
     2  N   -1.216300   7.904064  -0.076642   0.132381   0.210590  -0.080368
     3  C   -0.136318  -0.076642   9.034985  -0.756794  -0.947810  -1.045032
     4  C   -0.113663   0.132381  -0.756794  11.260893   0.152584   0.890353
     5  C   -0.365514   0.210590  -0.947810   0.152584   7.770994  -0.681489
     6  C    0.261918  -0.080368  -1.045032   0.890353  -0.681489   7.248534
     7  C    0.028849  -0.090648   0.254815  -2.586286  -0.554626   0.077634
     8  C   -0.129923   0.654581  -0.264411   0.457138   0.050818   0.029587
     9  C   -0.366604   0.042175   0.773555  -2.811868  -0.048302  -1.045873
    10  C    0.092195  -0.289842  -0.522138   0.653352  -0.066942   0.246511
    11  C    0.191459  -0.558124   0.133150  -0.895867  -0.020113  -0.193831
    12  C    0.016426  -0.007010  -0.027584   0.014312  -0.012718  -0.094882
    13  C    0.240651  -0.288463  -0.054829  -0.071986   0.068285  -0.028298
    14  C   -0.532962   0.384848   0.113355  -0.157754  -0.042364  -0.024555
    15  C   -0.003658   0.013370  -0.006197   0.041722  -0.004890   0.000794
    16  C   -0.039164   0.168276  -0.025132   0.090533   0.016811   0.030677
    17  C   -0.015583  -0.002851   0.000720  -0.025288   0.005600  -0.001168
    18  H   -0.001753  -0.026894   0.167472  -0.001801   0.261847   0.006329
    19  H    0.038424  -0.005220  -0.241069   0.021462   0.493822   0.013007
    20  H    0.055989  -0.011660  -0.138986   0.024300  -0.014783   0.451374
    21  H    0.041966  -0.006071  -0.058881  -0.087647  -0.023853   0.015345
    22  H    0.029716  -0.002814   0.018201  -0.075010   0.000615  -0.000066
    23  H    0.032828  -0.006857   0.010432  -0.055702   0.001534  -0.007325
    24  H   -0.021220   0.001440   0.047273  -0.015521   0.007234  -0.001945
    25  H   -0.002894   0.007856  -0.031322  -0.002038   0.023477   0.009042
    26  H    0.045038  -0.011280  -0.168408   0.012205   0.062487  -0.016130
    27  H   -0.000575  -0.005237  -0.000219  -0.016092   0.000396  -0.000715
    28  H   -0.039935   0.040953   0.015780  -0.005633  -0.005089  -0.008551
    29  H   -0.000442   0.000151  -0.000049  -0.000093  -0.000039  -0.000205
    30  H    0.001053  -0.001336  -0.000218   0.000146  -0.000461  -0.000073
    31  H    0.000174   0.000248   0.000135   0.000277  -0.000033   0.000053
               7          8          9         10         11         12
     1  N    0.028849  -0.129923  -0.366604   0.092195   0.191459   0.016426
     2  N   -0.090648   0.654581   0.042175  -0.289842  -0.558124  -0.007010
     3  C    0.254815  -0.264411   0.773555  -0.522138   0.133150  -0.027584
     4  C   -2.586286   0.457138  -2.811868   0.653352  -0.895867   0.014312
     5  C   -0.554626   0.050818  -0.048302  -0.066942  -0.020113  -0.012718
     6  C    0.077634   0.029587  -1.045873   0.246511  -0.193831  -0.094882
     7  C    7.514433  -0.252493   1.625741  -0.720080   0.418041   0.066407
     8  C   -0.252493   7.767573  -1.254586   0.549656  -0.924470   0.035728
     9  C    1.625741  -1.254586   8.712586  -0.791034   0.798064   0.043291
    10  C   -0.720080   0.549656  -0.791034   7.828729  -0.873933   0.013145
    11  C    0.418041  -0.924470   0.798064  -0.873933  13.432200   0.015043
    12  C    0.066407   0.035728   0.043291   0.013145   0.015043   5.333737
    13  C   -0.057511  -0.100804   0.173151  -0.073595  -1.738290  -0.001698
    14  C    0.108728  -0.704563   0.337495  -0.251099  -2.702161  -0.001028
    15  C   -0.004871   0.174587  -0.027685   0.167772  -0.333611   0.000997
    16  C   -0.024444   0.269231  -0.133039   0.057814  -1.479048  -0.014547
    17  C    0.002563  -0.186759   0.024913  -0.076778  -0.443647  -0.001244
    18  H    0.001312  -0.000102  -0.007939   0.003782  -0.038319  -0.094474
    19  H   -0.012542  -0.005655  -0.008408   0.001697   0.015331  -0.023550
    20  H   -0.068738   0.002758  -0.029913   0.005479  -0.004248  -0.002045
    21  H    0.403483   0.005929  -0.022108   0.016575   0.002282   0.004800
    22  H   -0.020103   0.004692   0.362000  -0.043018  -0.012286  -0.000389
    23  H   -0.011217  -0.099828   0.066052   0.344961  -0.031066  -0.000008
    24  H   -0.000773   0.001304   0.004250  -0.000276  -0.009327   0.332241
    25  H   -0.003630  -0.000075  -0.002478  -0.001636  -0.003585   0.345020
    26  H   -0.019079  -0.017350  -0.007533  -0.002102   0.082026   0.417502
    27  H    0.003134   0.003308  -0.006499   0.005006  -0.156748  -0.000151
    28  H    0.009148  -0.025401   0.027428   0.005980  -0.189866   0.004769
    29  H    0.000229  -0.006830   0.003001   0.002696   0.006601   0.000038
    30  H   -0.000081   0.002088  -0.000909  -0.000486   0.027868   0.000149
    31  H    0.000052   0.003861  -0.000114  -0.001695   0.057875  -0.000024
              13         14         15         16         17         18
     1  N    0.240651  -0.532962  -0.003658  -0.039164  -0.015583  -0.001753
     2  N   -0.288463   0.384848   0.013370   0.168276  -0.002851  -0.026894
     3  C   -0.054829   0.113355  -0.006197  -0.025132   0.000720   0.167472
     4  C   -0.071986  -0.157754   0.041722   0.090533  -0.025288  -0.001801
     5  C    0.068285  -0.042364  -0.004890   0.016811   0.005600   0.261847
     6  C   -0.028298  -0.024555   0.000794   0.030677  -0.001168   0.006329
     7  C   -0.057511   0.108728  -0.004871  -0.024444   0.002563   0.001312
     8  C   -0.100804  -0.704563   0.174587   0.269231  -0.186759  -0.000102
     9  C    0.173151   0.337495  -0.027685  -0.133039   0.024913  -0.007939
    10  C   -0.073595  -0.251099   0.167772   0.057814  -0.076778   0.003782
    11  C   -1.738290  -2.702161  -0.333611  -1.479048  -0.443647  -0.038319
    12  C   -0.001698  -0.001028   0.000997  -0.014547  -0.001244  -0.094474
    13  C   19.158997  -8.926072  -1.509197  -0.476166   0.091405  -0.016461
    14  C   -8.926072  18.119082   0.994547  -0.406151  -0.269335   0.034560
    15  C   -1.509197   0.994547   6.313269  -0.068144   0.212057  -0.000137
    16  C   -0.476166  -0.406151  -0.068144   7.415013   0.433792   0.009033
    17  C    0.091405  -0.269335   0.212057   0.433792   6.097655   0.002167
    18  H   -0.016461   0.034560  -0.000137   0.009033   0.002167   0.630039
    19  H    0.005952  -0.017341  -0.000085  -0.000973  -0.000263  -0.055321
    20  H    0.000155  -0.000086  -0.000106   0.000503   0.000060   0.002999
    21  H   -0.001428   0.000061   0.000059  -0.000134  -0.000047   0.000705
    22  H    0.036420  -0.016510   0.000726  -0.000986  -0.000134  -0.000064
    23  H    0.003122   0.039810  -0.010144  -0.003153   0.009438   0.000051
    24  H   -0.002586   0.009888   0.000211   0.000143   0.000116   0.019398
    25  H    0.000050   0.001881  -0.000299   0.004586   0.000518  -0.004031
    26  H    0.027466  -0.077002  -0.000954  -0.014442  -0.001758  -0.018025
    27  H    0.671449  -0.143285  -0.092356   0.022906   0.010618  -0.000226
    28  H   -0.138857   0.633542   0.044644  -0.030143   0.012062  -0.003132
    29  H   -0.124489   0.056438   0.432699  -0.015908  -0.042096  -0.000045
    30  H    0.043643  -0.108445  -0.003477   0.426025  -0.086112  -0.000195
    31  H   -0.048573  -0.057808  -0.034617  -0.040880   0.441745   0.000075
              19         20         21         22         23         24
     1  N    0.038424   0.055989   0.041966   0.029716   0.032828  -0.021220
     2  N   -0.005220  -0.011660  -0.006071  -0.002814  -0.006857   0.001440
     3  C   -0.241069  -0.138986  -0.058881   0.018201   0.010432   0.047273
     4  C    0.021462   0.024300  -0.087647  -0.075010  -0.055702  -0.015521
     5  C    0.493822  -0.014783  -0.023853   0.000615   0.001534   0.007234
     6  C    0.013007   0.451374   0.015345  -0.000066  -0.007325  -0.001945
     7  C   -0.012542  -0.068738   0.403483  -0.020103  -0.011217  -0.000773
     8  C   -0.005655   0.002758   0.005929   0.004692  -0.099828   0.001304
     9  C   -0.008408  -0.029913  -0.022108   0.362000   0.066052   0.004250
    10  C    0.001697   0.005479   0.016575  -0.043018   0.344961  -0.000276
    11  C    0.015331  -0.004248   0.002282  -0.012286  -0.031066  -0.009327
    12  C   -0.023550  -0.002045   0.004800  -0.000389  -0.000008   0.332241
    13  C    0.005952   0.000155  -0.001428   0.036420   0.003122  -0.002586
    14  C   -0.017341  -0.000086   0.000061  -0.016510   0.039810   0.009888
    15  C   -0.000085  -0.000106   0.000059   0.000726  -0.010144   0.000211
    16  C   -0.000973   0.000503  -0.000134  -0.000986  -0.003153   0.000143
    17  C   -0.000263   0.000060  -0.000047  -0.000134   0.009438   0.000116
    18  H   -0.055321   0.002999   0.000705  -0.000064   0.000051   0.019398
    19  H    0.646576   0.001251  -0.000585   0.000002   0.000041  -0.018988
    20  H    0.001251   0.613860  -0.008419  -0.000139   0.000114  -0.004398
    21  H   -0.000585  -0.008419   0.599888  -0.000760   0.001024   0.000046
    22  H    0.000002  -0.000139  -0.000760   0.589229  -0.023009  -0.000042
    23  H    0.000041   0.000114   0.001024  -0.023009   0.615208   0.000069
    24  H   -0.018988  -0.004398   0.000046  -0.000042   0.000069   0.626074
    25  H   -0.005248   0.000441  -0.000027   0.000001  -0.000046  -0.033987
    26  H    0.029035   0.002223  -0.000052   0.000189  -0.000290  -0.050587
    27  H    0.000071   0.000003  -0.000014   0.000753   0.003817  -0.000039
    28  H   -0.001647  -0.000304  -0.000161   0.000379   0.000107  -0.000356
    29  H    0.000002  -0.000006   0.000004   0.000071  -0.002311   0.000002
    30  H    0.000044  -0.000008   0.000006   0.000009  -0.000251  -0.000025
    31  H   -0.000006   0.000001  -0.000001  -0.000018   0.000310  -0.000000
              25         26         27         28         29         30
     1  N   -0.002894   0.045038  -0.000575  -0.039935  -0.000442   0.001053
     2  N    0.007856  -0.011280  -0.005237   0.040953   0.000151  -0.001336
     3  C   -0.031322  -0.168408  -0.000219   0.015780  -0.000049  -0.000218
     4  C   -0.002038   0.012205  -0.016092  -0.005633  -0.000093   0.000146
     5  C    0.023477   0.062487   0.000396  -0.005089  -0.000039  -0.000461
     6  C    0.009042  -0.016130  -0.000715  -0.008551  -0.000205  -0.000073
     7  C   -0.003630  -0.019079   0.003134   0.009148   0.000229  -0.000081
     8  C   -0.000075  -0.017350   0.003308  -0.025401  -0.006830   0.002088
     9  C   -0.002478  -0.007533  -0.006499   0.027428   0.003001  -0.000909
    10  C   -0.001636  -0.002102   0.005006   0.005980   0.002696  -0.000486
    11  C   -0.003585   0.082026  -0.156748  -0.189866   0.006601   0.027868
    12  C    0.345020   0.417502  -0.000151   0.004769   0.000038   0.000149
    13  C    0.000050   0.027466   0.671449  -0.138857  -0.124489   0.043643
    14  C    0.001881  -0.077002  -0.143285   0.633542   0.056438  -0.108445
    15  C   -0.000299  -0.000954  -0.092356   0.044644   0.432699  -0.003477
    16  C    0.004586  -0.014442   0.022906  -0.030143  -0.015908   0.426025
    17  C    0.000518  -0.001758   0.010618   0.012062  -0.042096  -0.086112
    18  H   -0.004031  -0.018025  -0.000226  -0.003132  -0.000045  -0.000195
    19  H   -0.005248   0.029035   0.000071  -0.001647   0.000002   0.000044
    20  H    0.000441   0.002223   0.000003  -0.000304  -0.000006  -0.000008
    21  H   -0.000027  -0.000052  -0.000014  -0.000161   0.000004   0.000006
    22  H    0.000001   0.000189   0.000753   0.000379   0.000071   0.000009
    23  H   -0.000046  -0.000290   0.003817   0.000107  -0.002311  -0.000251
    24  H   -0.033987  -0.050587  -0.000039  -0.000356   0.000002  -0.000025
    25  H    0.605394  -0.032675   0.000029   0.000978  -0.000009  -0.000078
    26  H   -0.032675   0.646872   0.000254  -0.010648   0.000018   0.000376
    27  H    0.000029   0.000254   0.633815  -0.006815  -0.024166   0.002136
    28  H    0.000978  -0.010648  -0.006815   0.632552   0.001323  -0.026073
    29  H   -0.000009   0.000018  -0.024166   0.001323   0.599812  -0.002095
    30  H   -0.000078   0.000376   0.002136  -0.026073  -0.002095   0.600440
    31  H    0.000011  -0.000035  -0.003753  -0.002146  -0.021770  -0.023241
              31
     1  N    0.000174
     2  N    0.000248
     3  C    0.000135
     4  C    0.000277
     5  C   -0.000033
     6  C    0.000053
     7  C    0.000052
     8  C    0.003861
     9  C   -0.000114
    10  C   -0.001695
    11  C    0.057875
    12  C   -0.000024
    13  C   -0.048573
    14  C   -0.057808
    15  C   -0.034617
    16  C   -0.040880
    17  C    0.441745
    18  H    0.000075
    19  H   -0.000006
    20  H    0.000001
    21  H   -0.000001
    22  H   -0.000018
    23  H    0.000310
    24  H   -0.000000
    25  H    0.000011
    26  H   -0.000035
    27  H   -0.003753
    28  H   -0.002146
    29  H   -0.021770
    30  H   -0.023241
    31  H    0.606450
 Mulliken charges:
               1
     1  N    0.385159
     2  N    0.126685
     3  C   -0.067833
     4  C   -0.072613
     5  C   -0.338067
     6  C   -0.050651
     7  C   -0.087444
     8  C   -0.039589
     9  C   -0.428807
    10  C   -0.280695
    11  C    1.428602
    12  C   -0.362254
    13  C   -0.861441
    14  C   -0.395713
    15  C   -0.297028
    16  C   -0.172890
    17  C   -0.192364
    18  H    0.129152
    19  H    0.130185
    20  H    0.122330
    21  H    0.118017
    22  H    0.152347
    23  H    0.122290
    24  H    0.110381
    25  H    0.124771
    26  H    0.122662
    27  H    0.099196
    28  H    0.065115
    29  H    0.137469
    30  H    0.149582
    31  H    0.123446
 Sum of Mulliken charges =  -0.00000
 Mulliken charges with hydrogens summed into heavy atoms:
               1
     1  N    0.385159
     2  N    0.126685
     3  C   -0.067833
     4  C   -0.072613
     5  C   -0.078730
     6  C    0.071678
     7  C    0.030573
     8  C   -0.039589
     9  C   -0.276460
    10  C   -0.158405
    11  C    1.428602
    12  C   -0.004439
    13  C   -0.762245
    14  C   -0.330598
    15  C   -0.159559
    16  C   -0.023308
    17  C   -0.068919
 Electronic spatial extent (au):  <R**2>=           4671.4749
 Charge=             -0.0000 electrons
 Dipole moment (field-independent basis, Debye):
[...]
 00458,-0.00000582,0.00000173,0.00004177,-0.00004267,-0.00000552,-0.000
 00195,0.00001015,-0.00000050,-0.00000442,0.00003110,0.00000807,0.00000
 221,-0.00000510,-0.00000742,0.00067479,0.00064711,0.00125628,0.0000581
 8,0.00084071,0.00121718,-0.00003553,-0.00002066,-0.00014513,0.00002454
 ,-0.00005302,0.00007703,0.00000519,-0.00001540,-0.00000995,0.00000427,
 0.00000669,-0.00001293,0.00015636,0.02176363,-0.00477656,-0.00497122,-
 0.06191603,0.06298583,-0.00023267,-0.00032897,0.00003464,-0.00017785,0
 .00105828,0.00116246,-0.00027695,0.00074468,-0.00017933,-0.00000726,-0
 .00056214,-0.00014359,-0.00701517,0.00193354,-0.00316300,-0.00002206,-
 0.00025975,0.00009417,0.00002593,0.00005947,-0.00001665,0.00009827,0.0
 0007806,-0.00006686,-0.00015522,0.00010312,-0.00001930,0.00013625,-0.0
 0000936,-0.00009992,0.00003680,0.00005181,0.00005103,-0.25487836,0.078
 96768,-0.08372800,-0.00003204,-0.00001953,-0.00000217,-0.00013753,0.00
 017256,0.00008962,0.00000360,-0.00000289,-0.00000519,0.00003994,-0.000
 07091,-0.00001665,0.00001360,0.00001386,0.00000545,0.00047112,-0.00020
 112,0.00005430,0.00105524,-0.00108826,-0.00095729,0.00007090,0.0000391
 4,0.00001331,0.00000700,-0.00001916,0.00001577,-0.00000390,0.00000289,
 0.00002319,0.00000268,0.00001962,-0.00000951,-0.01790397,0.00733992,-0
 .00816120,0.00415171,-0.00149243,0.00224012,0.27463892,-0.00042281,-0.
 00059826,0.00010301,0.00046581,-0.00076690,-0.00051687,-0.00055197,0.0
 0155351,0.00066087,0.00011070,-0.00004028,-0.00001483,-0.01601868,0.00
 515552,-0.00670582,-0.00012979,-0.00042404,0.00024440,-0.00011886,0.00
 029050,-0.00010309,0.00051859,-0.00015889,-0.00005122,-0.00006382,0.00
 006908,-0.00001650,0.00003468,0.00001951,-0.00008058,0.00015160,0.0000
 1052,0.00006430,0.08006954,-0.07657601,0.03385294,-0.00002937,-0.00008
 645,-0.00001708,-0.00020084,-0.00001373,0.00000621,-0.00000621,-0.0000
 3494,-0.00001454,0.00001616,0.00002728,0.00003701,-0.00006337,-0.00000
 448,-0.00000246,0.00059008,0.00037639,0.00079848,-0.00109692,-0.001332
 72,-0.00344545,0.00006717,0.00001924,-0.00001421,0.00000869,-0.0000041
 8,-0.00002349,-0.00000403,0.00000877,0.00000590,0.00000117,0.00004968,
 0.00000091,-0.00445363,0.00046420,-0.00204739,0.02748315,-0.00903862,0
 .01010923,-0.08635609,0.08083128,-0.00078782,-0.00017526,0.00009811,-0
 .00001632,0.00022118,0.00039281,0.00063292,0.00133760,0.00067976,0.000
 26030,-0.00053508,-0.00000946,-0.02461420,0.00873114,-0.01099971,-0.00
 005883,-0.00041540,0.00019304,-0.00002278,0.00023397,-0.00003263,0.000
 41041,-0.00006597,-0.00006123,-0.00031012,0.00016780,-0.00005119,0.000
 20247,0.00011898,-0.00015617,-0.00008612,0.00006061,0.00008129,-0.0821
 8377,0.03237498,-0.07826177,-0.00000150,-0.00000502,0.00000145,0.00012
 125,-0.00013887,-0.00016824,-0.00002211,0.00001293,0.00000384,-0.00004
 882,0.00009818,0.00001453,-0.00002318,-0.00001530,0.00000498,0.0002671
 8,0.00076900,0.00085845,-0.00109757,-0.00348101,-0.00400774,0.00007118
 ,0.00003219,-0.00006115,0.00001785,-0.00002343,-0.00000864,0.00000869,
 0.00000203,0.00002042,0.00000412,0.00006466,0.00000925,0.01995340,-0.0
 0847305,0.00888557,-0.00585132,0.00196588,-0.00342139,0.09289182,-0.03
 284139,0.08578847,-0.00002244,0.00027023,-0.00000500,-0.00004541,-0.00
 008941,-0.00007569,0.00033315,-0.00001538,0.00005369,0.00030957,-0.000
 31860,0.00004512,-0.00001542,0.00003883,-0.00002350,-0.00006145,-0.000
 27757,0.00005152,-0.00019227,0.00009913,-0.00001527,0.00117568,0.00011
 685,-0.00053110,-0.00057363,-0.00003534,-0.00017629,-0.00059614,0.0000
 6685,0.00015836,0.00867702,0.02102419,0.00538833,0.00001653,-0.0000318
 5,0.00003783,-0.06583490,-0.04846282,-0.01089858,-0.00323999,0.0027569
 6,0.00191065,-0.00054155,-0.02845699,-0.00731219,-0.00123817,0.0003109
 6,0.00013991,-0.00488837,-0.00172216,0.00102538,-0.00000359,-0.0000200
 7,0.00001007,0.00000313,-0.00001227,-0.00000367,0.00001048,-0.00001248
 ,0.00000014,-0.00000196,0.00000688,-0.00000342,-0.00000847,0.00002245,
 0.00007305,-0.00161584,-0.00051228,0.00147324,-0.00000507,0.00000817,-
 0.00000332,-0.00000279,-0.00002841,-0.00000735,0.00000507,0.00001936,-
 0.00000986,0.06722820,0.00010423,-0.00023877,-0.00001365,0.00068915,-0
 .00009139,0.00025864,-0.00029014,0.00005611,-0.00006586,-0.00027493,0.
 00011472,-0.00020234,0.00000391,-0.00002549,0.00001848,0.00005713,0.00
 023895,-0.00004768,0.00020645,-0.00004296,-0.00000722,-0.00162936,-0.0
 0080965,0.00098735,0.00027069,0.00035326,0.00010774,-0.00063462,-0.000
 32605,0.00068196,-0.00539944,-0.01407693,-0.00416270,-0.00002888,0.000
 02816,-0.00003338,-0.04841038,-0.31324446,-0.07324005,0.00326377,0.000
 05851,-0.00208757,0.00083325,-0.00605055,-0.00294347,0.00039733,0.0005
 2481,0.00031683,-0.00223412,0.00183553,-0.00124880,-0.00000468,0.00000
 955,-0.00001619,0.00000814,0.00000799,0.00000463,-0.00000181,0.0000157
 9,0.00001221,0.00000882,-0.00000463,-0.00000612,0.00002135,0.00001843,
 0.00008326,-0.00124064,0.00049078,0.00028130,0.00001330,-0.00000446,0.
 00000183,0.00000135,0.00001667,0.00000610,-0.00000244,-0.00001490,0.00
 002059,0.05471550,0.33209565,0.00034995,0.00030754,0.00023305,-0.00099
 873,0.00032461,-0.00031713,-0.00012461,0.00008113,-0.00000380,-0.00006
 136,-0.00025906,0.00006566,-0.00000668,-0.00002313,0.00003498,0.000068
 76,0.00002207,-0.00000965,-0.00004044,-0.00000048,0.00003511,-0.000041
 61,0.00083893,-0.00303903,-0.00048190,0.00032340,-0.00020794,0.0008734
 7,-0.00053156,0.00005343,-0.00309119,-0.00689731,0.00202146,-0.0000058
 8,0.00001634,-0.00002293,-0.01028482,-0.07409240,-0.05663254,0.0021037
 8,-0.00204912,0.00565816,0.00090589,0.00097274,0.00419510,0.00011525,0
 .00030470,-0.00087970,0.00104549,-0.00123274,0.00670417,0.00000746,0.0
 0001094,-0.00001224,-0.00000072,0.00000575,-0.00000104,-0.00000831,0.0
 0000499,-0.00001568,0.00001057,-0.00000108,-0.00000272,0.00004168,-0.0
 0000301,-0.00001355,0.00124143,0.00075239,-0.00033432,0.00000675,-0.00
 000393,-0.00000322,0.00000308,0.00001237,0.00000610,-0.00000514,-0.000
 00172,0.00001252,0.00930662,0.08009237,0.04703390,-0.00021646,0.000201
 80,0.00005164,-0.00148187,-0.00251893,-0.00053109,0.00004899,-0.000058
 12,-0.00000315,0.00008361,-0.00005175,0.00002915,0.00003142,-0.0000904
 1,-0.00000530,-0.00004397,-0.00009932,0.00001396,-0.00003722,0.0000893
 3,-0.00002374,-0.00072149,0.00037702,-0.00045825,-0.00014999,0.0001306
 6,-0.00005793,0.00037139,0.00023137,-0.00009771,0.00730950,-0.00306645
 ,-0.00131352,-0.00030495,0.00014242,-0.00030439,0.00074936,-0.00193871
 ,-0.00006933,-0.22031645,0.13286876,0.05731538,-0.00010905,-0.00083981
 ,-0.00026006,-0.01504356,0.01838905,0.00671089,-0.00368003,-0.00304695
 ,0.00030020,0.00002418,0.00002310,-0.00004652,0.00003706,0.00002741,0.
 00002885,0.00000690,-0.00000661,-0.00000268,0.00000401,0.00001091,0.00
 000476,0.00002098,0.00001752,0.00001669,-0.00000656,0.00004580,-0.0000
 1346,0.00014402,-0.00004841,0.00005772,0.00008065,-0.00006045,0.000038
 17,0.00007726,0.00003920,0.00031493,0.00030506,-0.00034772,-0.00021041
 ,0.23267491,-0.00086652,0.00060656,0.00010664,0.00029281,0.00030685,0.
 00014051,0.00004857,-0.00005422,-0.00002418,0.00010989,0.00004583,0.00
 000418,-0.00006248,0.00003937,-0.00000768,-0.00004378,-0.00005388,0.00
 002528,0.00005674,0.00011107,-0.00002600,0.00237791,-0.00007466,0.0009
 9525,0.00007255,0.00004365,-0.00003513,-0.00012767,-0.00023302,0.00004
 022,0.02271160,-0.01330476,-0.00719645,-0.00000613,-0.00009405,0.00008
 745,-0.00228292,-0.00438653,-0.00244468,0.13146779,-0.16245088,-0.0471
 4603,-0.00093984,-0.00057085,0.00019667,-0.01005633,0.01046234,0.00277
 516,-0.00296665,0.00070641,-0.00134406,-0.00002627,0.00000392,-0.00000
 666,0.00002406,-0.00001623,-0.00001142,0.00001547,-0.00000069,0.000000
 95,0.00002160,-0.00000455,-0.00001931,-0.00000610,-0.00000029,0.000002
 16,0.00001858,0.00012092,-0.00005335,-0.00004101,-0.00001002,-0.000033
 45,0.00007651,-0.00008734,0.00002876,-0.00016839,0.00025000,-0.0000461
 8,0.00116644,-0.00076838,-0.00041303,-0.14118906,0.16872003,-0.0003400
 7,0.00066750,-0.00020430,-0.00011024,-0.00107220,0.00013551,0.00015897
 ,-0.00009678,0.00011947,0.00031983,-0.00005013,-0.00007660,-0.00015041
 ,-0.00001080,0.00009099,-0.00008380,-0.00020937,-0.00000710,-0.0001668
 8,0.00016777,-0.00001346,-0.00138523,0.00091319,-0.00323410,-0.0002794
 5,0.00017875,0.00003122,0.00042788,0.00041559,0.00007687,0.00710600,-0
 .00324515,0.00264636,0.00016506,-0.00003479,-0.00006125,-0.00044902,-0
 .00248976,0.00561862,0.05616257,-0.04731235,-0.05734128,-0.00006302,0.
 00047745,-0.00088767,-0.00052882,-0.00088453,0.00420761,0.00075137,-0.
 00166712,0.00694071,-0.00004043,0.00000650,-0.00013129,0.00004105,-0.0
 0001009,-0.00004682,0.00000047,-0.00000856,-0.00000611,0.00001022,0.00
 001279,0.00001541,0.00001113,0.00000266,-0.00002214,0.00003736,0.00006
 262,-0.00005598,0.00007109,0.00000379,-0.00001442,-0.00006167,0.000041
 40,-0.00000234,-0.00009222,0.00001640,0.00018008,0.00028346,-0.0002354
 3,0.00015037,-0.06126539,0.05289841,0.04682944,-0.00028961,-0.00011761
 ,-0.00006451,-0.00036627,-0.00003645,0.00004308,0.00003988,-0.00008754
 ,0.00000544,0.00004027,0.00018988,-0.00003275,0.00000539,-0.00001221,0
 .00000875,-0.00006317,-0.00000688,-0.00000178,-0.00007312,0.00000296,-
 0.00000998,-0.00000543,0.00128340,0.00030719,0.00008960,-0.00007460,0.
 00001730,-0.00017966,-0.00001999,-0.00004696,-0.00393897,-0.00330604,0
 .00063369,0.00000757,0.00000316,-0.00000531,-0.01621905,0.01963646,0.0
 0777081,-0.00019071,-0.00101835,-0.00038695,-0.21759918,0.13077998,0.0
 5703080,0.00132804,-0.00188161,0.00027577,0.00793236,-0.00566633,-0.00
 199168,0.00000893,0.00000189,0.00000623,-0.00001140,0.00000694,-0.0000
 0007,-0.00001110,0.00000012,0.00000364,-0.00000977,-0.00000415,0.00000
 289,-0.00002545,-0.00001433,0.00000712,0.00001765,0.00000316,0.0000148
 1,-0.00000702,-0.00000223,0.00000124,-0.00000005,0.00001455,0.00000062
 ,-0.00000159,-0.00001054,-0.00001118,0.00094213,-0.00013545,-0.0006518
 6,-0.00003958,0.00011303,-0.00008546,0.22785447,-0.00003220,0.00005941
 ,-0.00003863,-0.00015199,0.00000215,0.00004391,0.00000756,-0.00000752,
 -0.00000647,0.00000532,-0.00004740,0.00000965,-0.00000045,0.00000021,-
 0.00000410,0.00000309,-0.00000786,0.00000563,0.00000306,-0.00000213,-0
 .00000351,-0.00030641,0.00037078,0.00009167,-0.00004545,0.00000309,0.0
 0000428,0.00006125,0.00003016,-0.00003123,-0.00288461,0.00079814,-0.00
 131731,-0.00000803,0.00000404,-0.00000198,-0.00987075,0.00981025,0.002
 90519,-0.00096115,-0.00057684,0.00023486,0.13106692,-0.16440492,-0.050
 12898,-0.00238932,-0.00434689,-0.00275677,0.02390881,-0.01234001,-0.00
 728455,-0.00000435,-0.00000162,-0.00000322,0.00000528,0.00000020,0.000
 00165,0.00000105,-0.00000213,0.00000157,0.00000011,0.00000244,0.000000
 34,-0.00000197,0.00000130,-0.00000117,-0.00001525,-0.00001732,0.000013
 13,0.00000532,0.00000150,0.00000033,-0.00000346,-0.00000108,-0.0000004
 2,-0.00000018,-0.00000413,0.00000607,0.00068858,0.00039365,0.00115474,
 0.00008767,-0.00002436,0.00023448,-0.14002636,0.17036550,0.00008930,0.
 00008167,-0.00004520,0.00002471,-0.00004731,-0.00010865,-0.00000821,0.
 00000694,-0.00000355,0.00001209,-0.00002873,0.00001783,-0.00000245,-0.
 00000259,0.00000078,0.00000929,-0.00000470,0.00000065,0.00000537,0.000
 00366,-0.00000438,-0.00008751,-0.00012904,0.00029559,-0.00001351,-0.00
 000683,-0.00000213,0.00007449,0.00008073,-0.00003150,0.00042149,-0.001
 13672,0.00678558,-0.00000348,-0.00000002,-0.00000082,0.00011199,-0.000
 90080,0.00337705,-0.00054657,0.00012789,-0.00088317,0.05692254,-0.0505
 6161,-0.05794771,0.00036667,-0.00281332,0.00631823,0.00574733,-0.00309
 767,0.00236658,0.00000084,0.00000123,-0.00000316,0.00000157,0.00000009
 ,0.00000095,0.00000027,-0.00000022,0.00000276,0.00000303,0.00000089,0.
 00000095,0.00000538,0.00000394,-0.00000020,0.00004699,-0.00001140,0.00
 002318,0.00000405,0.00000046,-0.00000154,-0.00000098,0.00000035,0.0000
 0098,-0.00000095,-0.00000089,0.00000231,-0.00045832,0.00134496,-0.0038
 4515,-0.00005960,0.00021232,-0.00089420,-0.06233971,0.05585787,0.04832
 509,-0.00011679,-0.00014157,0.00003826,0.00006919,0.00020419,-0.000008
 36,-0.00001208,-0.00005415,0.00001699,0.00001737,0.00016008,-0.0000358
 6,0.00000510,-0.00002601,0.00000750,-0.00003694,0.00002373,-0.00000446
 ,-0.00002959,0.00000674,-0.00000478,0.00049113,-0.00131553,-0.00020596
 ,0.00010616,-0.00015431,0.00007090,-0.00051149,-0.00002967,-0.00002360
 ,-0.00489467,-0.00186372,0.00080220,-0.00001346,0.00001922,-0.00001938
 ,-0.00135471,0.00038315,0.00015471,-0.00073841,-0.02859936,-0.00704594
 ,-0.00298154,0.00289112,0.00188780,-0.06720432,-0.05097401,-0.00996410
 ,0.00855837,0.02310866,0.00552780,0.00000225,-0.00000097,-0.00000788,0
 .00000087,0.00001131,0.00000687,-0.00000839,-0.00000111,-0.00000263,-0
 .00000363,-0.00000079,0.00000016,-0.00003923,-0.00001676,-0.00000028,0
 .00002027,-0.00000056,-0.00000886,0.00001234,0.00000367,0.00000156,-0.
 00001929,0.00003499,-0.00000165,0.00000393,-0.00004641,0.00000825,0.00
 007052,-0.00002414,-0.00012723,0.00095357,0.00073452,-0.00043214,0.000
 22139,0.00111739,0.00028271,0.06664486,-0.00014814,-0.00016878,0.00004
 916,0.00002671,0.00008049,-0.00004272,0.00000461,-0.00004833,0.0000101
 5,0.00001585,0.00017731,-0.00003562,0.00000737,-0.00001941,0.00000764,
 -0.00004218,0.00001353,-0.00000050,-0.00004732,0.00000307,-0.00000419,
 0.00043494,-0.00030182,-0.00013283,0.00011878,-0.00008248,0.00003128,-
 0.00025823,-0.00000933,0.00002412,-0.00202137,0.00180187,-0.00122511,0
 .00000145,0.00001009,-0.00000885,0.00032649,0.00061859,0.00036837,0.00
 075442,-0.00599010,-0.00274943,0.00336355,0.00001999,-0.00224535,-0.05
 107407,-0.31836669,-0.06777380,-0.00650828,-0.01301130,-0.00372642,0.0
 0000626,0.00000137,0.00000212,-0.00000781,0.00000745,0.00000231,-0.000
 00879,0.00000103,-0.00000308,-0.00000533,-0.00000339,-0.00000006,-0.00
 001894,-0.00001104,-0.00000384,0.00001808,0.00000314,-0.00001126,-0.00
 000655,-0.00000112,0.00000032,-0.00000399,0.00002288,0.00000005,0.0000
 0279,-0.00002550,-0.00000677,0.00000237,-0.00014863,0.00023491,-0.0001
 3209,0.00038698,0.00127526,-0.00031171,-0.00075239,-0.00018231,0.05511
 376,0.33532787,-0.00000977,-0.00004750,0.00004075,-0.00015618,-0.00003
 307,-0.00006566,0.00002332,-0.00001947,-0.00000875,0.00001965,0.000020
 59,0.00000086,-0.00001719,-0.00000206,0.00001973,-0.00000711,-0.000014
 41,0.00000217,-0.00002812,0.00000609,-0.00001527,0.00004916,0.00004964
 ,0.00016604,-0.00004261,0.00000154,-0.00000351,-0.00004732,-0.00005875
 ,-0.00013580,0.00102864,-0.00131847,0.00698192,0.00001075,-0.00001149,
 -0.00000532,0.00018132,0.00040221,-0.00083278,0.00078758,0.00071193,0.
 00419657,0.00184706,-0.00226299,0.00619224,-0.00983936,-0.06787979,-0.
 05476830,-0.00235342,-0.00686065,0.00237915,0.00000606,-0.00000476,-0.
 00000927,-0.00000318,0.00000069,-0.00000193,-0.00000324,-0.00000072,0.
 00000225,-0.00000088,0.00000018,0.00000077,-0.00000261,0.00000458,0.00
 002498,-0.00000975,0.00001540,-0.00001045,0.00000814,0.00000342,-0.000
 00451,-0.00000528,0.00001190,0.00000464,-0.00000582,-0.00000084,0.0000
 0560,-0.00014130,0.00023896,-0.00094644,-0.00053821,0.00115121,-0.0040
 3934,-0.00009076,-0.00033147,0.00002353,0.00979592,0.07499222,0.044463
 58,0.00000965,-0.00011975,0.00001350,-0.00012967,-0.00004099,-0.000046
 12,-0.00001715,-0.00000932,0.00000028,-0.00001660,0.00007620,-0.000020
 70,0.00000474,-0.00000351,0.00000730,-0.00000623,0.00002251,-0.0000063
 3,-0.00001884,-0.00001823,0.00000391,0.00005072,0.00006228,-0.00010504
 ,0.00006173,-0.00001875,0.00001313,-0.00009792,-0.00003324,0.00002508,
 0.00046391,0.00071003,-0.00001060,0.00002388,-0.00001067,0.00000848,0.
 00178454,-0.00098786,0.00034213,-0.00162061,0.00350615,0.00193684,-0.0
 0145219,0.00097580,0.00085633,-0.01613154,-0.01086488,-0.00054115,-0.3
 1085010,-0.09306355,0.00732136,0.00000971,0.00000073,0.00000862,-0.000
 01330,0.00000092,-0.00000277,-0.00000657,0.00000284,-0.00000057,-0.000
 00420,-0.00000344,0.00000224,-0.00000747,-0.00000724,-0.00000038,0.000
 00785,0.00001692,-0.00001715,-0.00001493,-0.00000139,-0.00000024,0.000
 00016,0.00001206,-0.00000203,0.00000634,-0.00000256,-0.00001928,-0.000
 18910,0.00006440,0.00006071,-0.00077171,-0.00052494,-0.00001223,0.0005
 4347,-0.00025950,-0.00060882,0.00078723,0.00039739,-0.00045551,0.32759
 419,-0.00005544,-0.00006816,0.00000125,0.00006414,0.00008876,0.0000520
 5,-0.00006068,-0.00000588,-0.00001112,-0.00005476,0.00007982,-0.000027
 88,0.00000183,-0.00000631,0.00000280,0.00000348,0.00005764,-0.00000838
 ,0.00004094,-0.00001440,-0.00000134,0.00010285,0.00002949,0.00024227,0
 .00011545,0.00001646,0.00001890,-0.00009214,-0.00010475,0.00004506,0.0
 0064667,-0.00118289,-0.00011772,-0.00000844,0.00000960,-0.00001046,-0.
 00060821,-0.00464639,-0.00304560,0.00310104,-0.00133318,-0.00253399,-0
 .02870064,-0.00466386,0.00110639,0.01872325,0.01048479,-0.00041709,-0.
 09297505,-0.09051228,-0.00312638,-0.00000065,0.00000266,-0.00000188,0.
 00000022,0.00000275,0.00000120,-0.00000182,0.00000293,0.00000095,0.000
 00017,-0.00000239,-0.00000043,0.00000090,-0.00000094,0.00000688,0.0000
 0819,0.00004838,-0.00005203,0.00000256,-0.00000262,0.00000165,0.000002
 30,0.00000277,0.00000209,-0.00000579,-0.00000146,0.00000495,-0.0013181
 2,-0.00041131,0.00004864,0.00081275,0.00033080,-0.00004749,0.00069686,
 0.00069378,0.00120117,-0.00056346,0.00046464,0.00123588,0.10012159,0.0
 9064153,0.00001732,0.00014005,-0.00004327,-0.00014551,-0.00009095,0.00
 007534,0.00005021,-0.00000030,0.00002106,0.00007923,-0.00009142,-0.000
 00027,-0.00000069,-0.00000811,0.00001190,-0.00000799,-0.00006894,0.000
 01106,-0.00007153,0.00003143,0.00000694,-0.00023617,0.00011852,-0.0008
 8165,-0.00015725,0.00005474,-0.00003464,0.00017202,0.00007824,0.000016
 28,0.00021738,-0.00024241,-0.00094586,-0.00000150,0.00000444,-0.000007
 61,0.00030433,-0.00289638,0.00632010,0.00180831,-0.00244251,0.00613782
 ,-0.00671742,-0.00221599,0.00415872,0.00713034,0.00285214,0.00386988,0
 .00735177,-0.00319502,-0.03935184,0.00000197,0.00000133,-0.00000565,0.
 00000122,0.00000226,-0.00000016,-0.00000152,-0.00000247,-0.00000363,0.
 00000210,0.00000263,0.00000267,0.00000162,-0.00000078,-0.00001168,-0.0
 0001711,0.00004569,0.00002028,0.00000672,-0.00000018,-0.00000095,-0.00
 000080,0.00000130,0.00000263,-0.00000306,-0.00000131,0.00000686,-0.000
 29249,-0.00014676,0.00008308,0.00037841,0.00014246,-0.00000425,-0.0004
 1040,0.00134446,-0.00377069,-0.00070854,0.00115421,-0.00365744,-0.0087
 5098,0.00542965,0.02797497\\-0.00000813,-0.00000901,0.00000875,0.00002
 651,-0.00002974,0.00001306,0.00001827,0.00000380,-0.00001433,-0.000029
 58,0.00001603,-0.00000241,-0.00001136,-0.00001510,-0.00000134,0.000000
 31,0.00002571,-0.00000398,0.00000695,-0.00002333,0.00001027,-0.0000296
 9,0.00001606,-0.00001268,0.00000816,-0.00001680,0.00000210,0.00000664,
 0.00001875,0.00000266,0.00000410,0.00000555,0.00000114,0.00000486,0.00
 000529,0.00000226,0.00000108,0.00000336,0.00000349,-0.00000188,-0.0000
 0886,-0.00000316,-0.00000350,-0.00000005,0.,0.00000214,0.00000343,-0.0
 0000074,0.00000349,0.00000349,-0.00000080,-0.00000251,0.00000101,-0.00
 000228,0.00000145,-0.00000124,-0.00000154,-0.00000004,-0.00000191,-0.0
 0000064,0.00000209,0.00000316,0.00000395,0.00000422,0.00000064,0.00000
 532,0.00000084,-0.00000011,0.00000232,-0.00000097,-0.00000013,-0.00000
 270,-0.00000014,-0.00000093,-0.00000433,-0.00000238,0.00000096,-0.0000
 0267,0.00000210,-0.00000100,0.00000247,0.00000155,0.00000151,-0.000001
 70,-0.00000144,-0.00000058,0.00000202,-0.00000191,0.00000001,-0.000003
 75,-0.00000124,0.00000004,-0.00000075\\\@
 The archive entry for this job was punched.


 NATURE REVEALS EVERY SECRET ONCE.
                    - RALPH WALDO EMERSON
 Job cpu time:       0 days  9 hours 28 minutes 34.1 seconds.
 Elapsed time:       0 days  0 hours 22 minutes 14.1 seconds.
 File lengths (MBytes):  RWF=    591 Int=      0 D2E=      0 Chk=     19 Scr=      1
 Normal termination of Gaussian 16 at Wed Dec  6 11:11:44 2023.
