 Entering Gaussian System, Link 0=g16
 Input=/home/exlonk/in_progress/3298.inp
 Output=/home/exlonk/in_progress/3298.log
 Initial command:
 /opt/gaussian/g16-c01/g16/l1.exe "/lustre/tmp/slurm/2182961/Gau-2029393.inp" -scrdir="/lustre/tmp/slurm/2182961/"
 Default CPUs for threads: 0-4,7-9,13-15,19-20,24-28,31-32,36-38,42-44
 Default is to use a total of  26 processors:
                               26 via shared-memory
                                1 via Linda
 Entering Link 1 = /opt/gaussian/g16-c01/g16/l1.exe PID=   2029394.
  
 Copyright (c) 1988-2019, Gaussian, Inc.  All Rights Reserved.
  
 This is part of the Gaussian(R) 16 program.  It is based on
 the Gaussian(R) 09 system (copyright 2009, Gaussian, Inc.),
 the Gaussian(R) 03 system (copyright 2003, Gaussian, Inc.),
 the Gaussian(R) 98 system (copyright 1998, Gaussian, Inc.),
 the Gaussian(R) 94 system (copyright 1995, Gaussian, Inc.),
 the Gaussian 92(TM) system (copyright 1992, Gaussian, Inc.),
 the Gaussian 90(TM) system (copyright 1990, Gaussian, Inc.),
 the Gaussian 88(TM) system (copyright 1988, Gaussian, Inc.),
 the Gaussian 86(TM) system (copyright 1986, Carnegie Mellon
 University), and the Gaussian 82(TM) system (copyright 1983,
 Carnegie Mellon University). Gaussian is a federally registered
 trademark of Gaussian, Inc.
  
 This software contains proprietary and confidential information,
 including trade secrets, belonging to Gaussian, Inc.
  
 This software is provided under written license and may be
 used, copied, transmitted, or stored only in accord with that
 written license.
  
 The following legend is applicable only to US Government
 contracts under FAR:
  
                    RESTRICTED RIGHTS LEGEND
  
 Use, reproduction and disclosure by the US Government is
 subject to restrictions as set forth in subparagraphs (a)
 and (c) of the Commercial Computer Software - Restricted
 Rights clause in FAR 52.227-19.
  
 Gaussian, Inc.
 340 Quinnipiac St., Bldg. 40, Wallingford CT 06492
  
  
 ---------------------------------------------------------------
 Warning -- This program may not be used in any manner that
 competes with the business of Gaussian, Inc. or will provide
 assistance to any competitor of Gaussian, Inc.  The licensee
 of this program is prohibited from giving any competitor of
 Gaussian, Inc. access to this program.  By using this program,
 the user acknowledges that Gaussian, Inc. is engaged in the
 business of creating and licensing software in the field of
 computational chemistry and represents and warrants to the
 licensee that it is not a competitor of Gaussian, Inc. and that
 it will not use this program in any manner prohibited above.
 ---------------------------------------------------------------
  

 Cite this work as:
 Gaussian 16, Revision C.01,
 M. J. Frisch, G. W. Trucks, H. B. Schlegel, G. E. Scuseria, 
 M. A. Robb, J. R. Cheeseman, G. Scalmani, V. Barone, 
 G. A. Petersson, H. Nakatsuji, X. Li, M. Caricato, A. V. Marenich, 
 J. Bloino, B. G. Janesko, R. Gomperts, B. Mennucci, H. P. Hratchian, 
 J. V. Ortiz, A. F. Izmaylov, J. L. Sonnenberg, D. Williams-Young, 
 F. Ding, F. Lipparini, F. Egidi, J. Goings, B. Peng, A. Petrone, 
 T. Henderson, D. Ranasinghe, V. G. Zakrzewski, J. Gao, N. Rega, 
 G. Zheng, W. Liang, M. Hada, M. Ehara, K. Toyota, R. Fukuda, 
 J. Hasegawa, M. Ishida, T. Nakajima, Y. Honda, O. Kitao, H. Nakai, 
 T. Vreven, K. Throssell, J. A. Montgomery, Jr., J. E. Peralta, 
 F. Ogliaro, M. J. Bearpark, J. J. Heyd, E. N. Brothers, K. N. Kudin, 
 V. N. Staroverov, T. A. Keith, R. Kobayashi, J. Normand, 
 K. Raghavachari, A. P. Rendell, J. C. Burant, S. S. Iyengar, 
 J. Tomasi, M. Cossi, J. M. Millam, M. Klene, C. Adamo, R. Cammi, 
 J. W. Ochterski, R. L. Martin, K. Morokuma, O. Farkas, 
 J. B. Foresman, and D. J. Fox, Gaussian, Inc., Wallingford CT, 2019.
 
 ******************************************
 Gaussian 16:  EM64L-G16RevC.01  3-Jul-2019
                 5-Dec-2023 
 ******************************************
 %nproc=26
 Will use up to   26 processors via shared memory.
 %mem=16GB
 %chk=/home/exlonk/in_progress/3298.chk
 ------------------------------
 #p MN15/6-311++G(d,p) opt freq
 ------------------------------
 1/18=20,19=15,26=3,38=1/1,3;
 2/9=110,12=2,17=6,18=5,40=1/2;
 3/5=4,6=6,7=1111,11=2,25=1,30=1,71=1,74=-73/1,2,3;
 4//1;
 5/5=2,38=5/2;
 6/7=2,8=2,9=2,10=2,28=1/1;
 7//1,2,3,16;
 1/18=20,19=15,26=3/3(2);
 2/9=110/2;
 99//99;
 2/9=110/2;
 3/5=4,6=6,7=1111,11=2,25=1,30=1,71=1,74=-73/1,2,3;
 4/5=5,16=3,69=1/1;
 5/5=2,38=5/2;
 7//1,2,3,16;
 1/18=20,19=15,26=3/3(-5);
 2/9=110/2;
 6/7=2,8=2,9=2,10=2,19=2,28=1/1;
 99/9=1/99;
 Leave Link    1 at Tue Dec  5 14:38:13 2023, MaxMem=  2147483648 cpu:               4.1 elap:               0.2
 (Enter /opt/gaussian/g16-c01/g16/l101.exe)
 ---------------
 name file: 3298
 ---------------
 Symbolic Z-matrix:
 Charge =  0 Multiplicity = 1
 C                     5.58471  -3.34065  -0.76928 
 C                     4.43293  -2.42958  -0.45704 
 C                     3.96496  -1.52841  -1.42187 
 C                     2.87521  -0.68239  -1.17477 
 C                     2.27177  -0.76224   0.08755 
 C                     2.68536  -1.68416   1.04384 
 C                     3.7773   -2.52555   0.78113 
 N                     1.88269  -1.60529   2.14381 
 N                     0.97155  -0.67118   1.91676 
 N                     1.20448  -0.12971   0.69742 
 C                     0.46313   1.00074   0.35311 
 C                     0.89631   2.14715  -0.29149 
 C                     2.21693   2.45538  -0.74084 
 N                     3.27464   2.75627  -1.11021 
 C                    -0.18593   3.06951  -0.31397 
 C                    -0.38969   4.383    -0.77029 
 N                     0.5656    5.14648  -1.41857 
 N                    -1.58952   4.96004  -0.57593 
 C                    -2.54443   4.25499   0.05256 
 N                    -2.46401   3.00298   0.52361 
 C                    -1.25984   2.44774   0.31006 
 N                    -0.88635   1.16591   0.65815 
 C                    -1.77621   0.12543   1.16962 
 C                    -3.28415   0.33671   1.0847 
 C                    -3.79118  -1.07992   1.20886 
 O                    -3.76273  -1.43363   2.5941 
 C                    -2.74669  -1.872     0.41902 
 C                    -3.17338  -2.14578  -1.02377 
 O                    -4.34273  -2.9533   -1.05453 
 O                    -1.54491  -1.07341   0.38813 
 H                     5.21802  -4.26127  -1.2335 
 H                     6.13682  -3.59829   0.14068 
 H                     6.29141  -2.85616  -1.45121 
 H                     4.4525   -1.47714  -2.39517 
 H                     2.51867  -0.01381  -1.95075 
 H                     4.09514  -3.23954   1.5343 
 H                     0.29338   6.12291  -1.45376 
 H                     1.53915   4.96845  -1.21149 
 H                    -3.49493   4.76069   0.19378 
 H                    -1.48088  -0.06257   2.20866 
 H                    -3.57774   0.73205   0.10539 
 H                    -3.65067   1.00048   1.87359 
 H                    -4.8189   -1.1996    0.85513 
 H                    -4.07099  -2.35563   2.66245 
 H                    -2.51596  -2.81836   0.92147 
 H                    -3.37058  -1.21189  -1.56152 
 H                    -2.37013  -2.66486  -1.55841 
 H                    -4.52015  -3.16063  -1.9895 
 
 ITRead=  0  0  0  0  0  0  0  0  0  0  0  0  0  0  0  0  0  0  0  0
 ITRead=  0  0  0  0  0  0  0  0  0  0  0  0  0  0  0  0  0  0  0  0
 ITRead=  0  0  0  0  0  0  0  0
 MicOpt= -1 -1 -1 -1 -1 -1 -1 -1 -1 -1 -1 -1 -1 -1 -1 -1 -1 -1 -1 -1
 MicOpt= -1 -1 -1 -1 -1 -1 -1 -1 -1 -1 -1 -1 -1 -1 -1 -1 -1 -1 -1 -1
 MicOpt= -1 -1 -1 -1 -1 -1 -1 -1
 NAtoms=     48 NQM=       48 NQMF=       0 NMMI=      0 NMMIF=      0
                NMic=       0 NMicF=      0.
                    Isotopes and Nuclear Properties:
 (Nuclear quadrupole moments (NQMom) in fm**2, nuclear magnetic moments (NMagM)
  in nuclear magnetons)

  Atom         1           2           3           4           5           6           7           8           9          10
 IAtWgt=          12          12          12          12          12          12          12          14          14          14
 AtmWgt=  12.0000000  12.0000000  12.0000000  12.0000000  12.0000000  12.0000000  12.0000000  14.0030740  14.0030740  14.0030740
 NucSpn=           0           0           0           0           0           0           0           2           2           2
 AtZEff=  -0.0000000  -0.0000000  -0.0000000  -0.0000000  -0.0000000  -0.0000000  -0.0000000  -0.0000000  -0.0000000  -0.0000000
 NQMom=    0.0000000   0.0000000   0.0000000   0.0000000   0.0000000   0.0000000   0.0000000   2.0440000   2.0440000   2.0440000
 NMagM=    0.0000000   0.0000000   0.0000000   0.0000000   0.0000000   0.0000000   0.0000000   0.4037610   0.4037610   0.4037610
 AtZNuc=   6.0000000   6.0000000   6.0000000   6.0000000   6.0000000   6.0000000   6.0000000   7.0000000   7.0000000   7.0000000

  Atom        11          12          13          14          15          16          17          18          19          20
 IAtWgt=          12          12          12          14          12          12          14          14          12          14
 AtmWgt=  12.0000000  12.0000000  12.0000000  14.0030740  12.0000000  12.0000000  14.0030740  14.0030740  12.0000000  14.0030740
 NucSpn=           0           0           0           2           0           0           2           2           0           2
 AtZEff=  -0.0000000  -0.0000000  -0.0000000  -0.0000000  -0.0000000  -0.0000000  -0.0000000  -0.0000000  -0.0000000  -0.0000000
 NQMom=    0.0000000   0.0000000   0.0000000   2.0440000   0.0000000   0.0000000   2.0440000   2.0440000   0.0000000   2.0440000
 NMagM=    0.0000000   0.0000000   0.0000000   0.4037610   0.0000000   0.0000000   0.4037610   0.4037610   0.0000000   0.4037610
 AtZNuc=   6.0000000   6.0000000   6.0000000   7.0000000   6.0000000   6.0000000   7.0000000   7.0000000   6.0000000   7.0000000

  Atom        21          22          23          24          25          26          27          28          29          30
 IAtWgt=          12          14          12          12          12          16          12          12          16          16
 AtmWgt=  12.0000000  14.0030740  12.0000000  12.0000000  12.0000000  15.9949146  12.0000000  12.0000000  15.9949146  15.9949146
 NucSpn=           0           2           0           0           0           0           0           0           0           0
 AtZEff=  -0.0000000  -0.0000000  -0.0000000  -0.0000000  -0.0000000  -0.0000000  -0.0000000  -0.0000000  -0.0000000  -0.0000000
 NQMom=    0.0000000   2.0440000   0.0000000   0.0000000   0.0000000   0.0000000   0.0000000   0.0000000   0.0000000   0.0000000
 NMagM=    0.0000000   0.4037610   0.0000000   0.0000000   0.0000000   0.0000000   0.0000000   0.0000000   0.0000000   0.0000000
 AtZNuc=   6.0000000   7.0000000   6.0000000   6.0000000   6.0000000   8.0000000   6.0000000   6.0000000   8.0000000   8.0000000

  Atom        31          32          33          34          35          36          37          38          39          40
 IAtWgt=           1           1           1           1           1           1           1           1           1           1
 AtmWgt=   1.0078250   1.0078250   1.0078250   1.0078250   1.0078250   1.0078250   1.0078250   1.0078250   1.0078250   1.0078250
 NucSpn=           1           1           1           1           1           1           1           1           1           1
 AtZEff=  -0.0000000  -0.0000000  -0.0000000  -0.0000000  -0.0000000  -0.0000000  -0.0000000  -0.0000000  -0.0000000  -0.0000000
 NQMom=    0.0000000   0.0000000   0.0000000   0.0000000   0.0000000   0.0000000   0.0000000   0.0000000   0.0000000   0.0000000
 NMagM=    2.7928460   2.7928460   2.7928460   2.7928460   2.7928460   2.7928460   2.7928460   2.7928460   2.7928460   2.7928460
 AtZNuc=   1.0000000   1.0000000   1.0000000   1.0000000   1.0000000   1.0000000   1.0000000   1.0000000   1.0000000   1.0000000

  Atom        41          42          43          44          45          46          47          48
 IAtWgt=           1           1           1           1           1           1           1           1
 AtmWgt=   1.0078250   1.0078250   1.0078250   1.0078250   1.0078250   1.0078250   1.0078250   1.0078250
 NucSpn=           1           1           1           1           1           1           1           1
 AtZEff=  -0.0000000  -0.0000000  -0.0000000  -0.0000000  -0.0000000  -0.0000000  -0.0000000  -0.0000000
 NQMom=    0.0000000   0.0000000   0.0000000   0.0000000   0.0000000   0.0000000   0.0000000   0.0000000
 NMagM=    2.7928460   2.7928460   2.7928460   2.7928460   2.7928460   2.7928460   2.7928460   2.7928460
 AtZNuc=   1.0000000   1.0000000   1.0000000   1.0000000   1.0000000   1.0000000   1.0000000   1.0000000
 Leave Link  101 at Tue Dec  5 14:38:14 2023, MaxMem=  2147483648 cpu:               8.9 elap:               0.4
 (Enter /opt/gaussian/g16-c01/g16/l103.exe)

 GradGradGradGradGradGradGradGradGradGradGradGradGradGradGradGradGradGrad
 Berny optimization.
 Initialization pass.
                           ----------------------------
                           !    Initial Parameters    !
                           ! (Angstroms and Degrees)  !
 --------------------------                            --------------------------
 ! Name  Definition              Value          Derivative Info.                !
 --------------------------------------------------------------------------------
 ! R1    R(1,2)                  1.5014         estimate D2E/DX2                !
 ! R2    R(1,31)                 1.0943         estimate D2E/DX2                !
 ! R3    R(1,32)                 1.0951         estimate D2E/DX2                !
 ! R4    R(1,33)                 1.0951         estimate D2E/DX2                !
 ! R5    R(2,3)                  1.4007         estimate D2E/DX2                !
 ! R6    R(2,7)                  1.4043         estimate D2E/DX2                !
 ! R7    R(3,4)                  1.4016         estimate D2E/DX2                !
 ! R8    R(3,34)                 1.0898         estimate D2E/DX2                !
 ! R9    R(4,5)                  1.4014         estimate D2E/DX2                !
 ! R10   R(4,35)                 1.0846         estimate D2E/DX2                !
 ! R11   R(5,6)                  1.3912         estimate D2E/DX2                !
 ! R12   R(5,10)                 1.3824         estimate D2E/DX2                !
 ! R13   R(6,7)                  1.4033         estimate D2E/DX2                !
 ! R14   R(6,8)                  1.364          estimate D2E/DX2                !
 ! R15   R(7,36)                 1.0854         estimate D2E/DX2                !
 ! R16   R(8,9)                  1.3245         estimate D2E/DX2                !
 ! R17   R(9,10)                 1.3543         estimate D2E/DX2                !
 ! R18   R(10,11)                1.395          estimate D2E/DX2                !
 ! R19   R(11,12)                1.3847         estimate D2E/DX2                !
 ! R20   R(11,22)                1.3934         estimate D2E/DX2                !
 ! R21   R(12,13)                1.4286         estimate D2E/DX2                !
 ! R22   R(12,15)                1.4221         estimate D2E/DX2                !
 ! R23   R(13,14)                1.1601         estimate D2E/DX2                !
 ! R24   R(15,16)                1.4053         estimate D2E/DX2                !
 ! R25   R(15,21)                1.389          estimate D2E/DX2                !
 ! R26   R(16,17)                1.3841         estimate D2E/DX2                !
 ! R27   R(16,18)                1.3455         estimate D2E/DX2                !
 ! R28   R(17,37)                1.0143         estimate D2E/DX2                !
 ! R29   R(17,38)                1.0111         estimate D2E/DX2                !
 ! R30   R(18,19)                1.3431         estimate D2E/DX2                !
 ! R31   R(19,20)                1.3401         estimate D2E/DX2                !
 ! R32   R(19,39)                1.0859         estimate D2E/DX2                !
 ! R33   R(20,21)                1.3431         estimate D2E/DX2                !
 ! R34   R(21,22)                1.3798         estimate D2E/DX2                !
 ! R35   R(22,23)                1.4615         estimate D2E/DX2                !
 ! R36   R(23,24)                1.525          estimate D2E/DX2                !
 ! R37   R(23,30)                1.4496         estimate D2E/DX2                !
 ! R38   R(23,40)                1.0964         estimate D2E/DX2                !
 ! R39   R(24,25)                1.5097         estimate D2E/DX2                !
 ! R40   R(24,41)                1.0961         estimate D2E/DX2                !
 ! R41   R(24,42)                1.0942         estimate D2E/DX2                !
 ! R42   R(25,26)                1.43           estimate D2E/DX2                !
 ! R43   R(25,27)                1.5304         estimate D2E/DX2                !
 ! R44   R(25,43)                1.0935         estimate D2E/DX2                !
 ! R45   R(26,44)                0.9746         estimate D2E/DX2                !
 ! R46   R(27,28)                1.5293         estimate D2E/DX2                !
 ! R47   R(27,30)                1.4432         estimate D2E/DX2                !
 ! R48   R(27,45)                1.096          estimate D2E/DX2                !
 ! R49   R(28,29)                1.4214         estimate D2E/DX2                !
 ! R50   R(28,46)                1.0955         estimate D2E/DX2                !
 ! R51   R(28,47)                1.0957         estimate D2E/DX2                !
 ! R52   R(29,48)                0.974          estimate D2E/DX2                !
 ! A1    A(2,1,31)             109.979          estimate D2E/DX2                !
 ! A2    A(2,1,32)             110.8993         estimate D2E/DX2                !
 ! A3    A(2,1,33)             110.8608         estimate D2E/DX2                !
 ! A4    A(31,1,32)            108.8756         estimate D2E/DX2                !
 ! A5    A(31,1,33)            108.9221         estimate D2E/DX2                !
 ! A6    A(32,1,33)            107.2284         estimate D2E/DX2                !
 ! A7    A(1,2,3)              120.2295         estimate D2E/DX2                !
 ! A8    A(1,2,7)              120.003          estimate D2E/DX2                !
 ! A9    A(3,2,7)              119.6895         estimate D2E/DX2                !
 ! A10   A(2,3,4)              121.782          estimate D2E/DX2                !
 ! A11   A(2,3,34)             119.7345         estimate D2E/DX2                !
 ! A12   A(4,3,34)             118.4833         estimate D2E/DX2                !
 ! A13   A(3,4,5)              117.3358         estimate D2E/DX2                !
 ! A14   A(3,4,35)             120.1046         estimate D2E/DX2                !
 ! A15   A(5,4,35)             122.55           estimate D2E/DX2                !
 ! A16   A(4,5,6)              121.9314         estimate D2E/DX2                !
 ! A17   A(4,5,10)             134.7271         estimate D2E/DX2                !
 ! A18   A(6,5,10)             103.266          estimate D2E/DX2                !
 ! A19   A(5,6,7)              119.9974         estimate D2E/DX2                !
 ! A20   A(5,6,8)              109.942          estimate D2E/DX2                !
 ! A21   A(7,6,8)              130.0566         estimate D2E/DX2                !
 ! A22   A(2,7,6)              119.1671         estimate D2E/DX2                !
 ! A23   A(2,7,36)             121.336          estimate D2E/DX2                !
 ! A24   A(6,7,36)             119.4961         estimate D2E/DX2                !
 ! A25   A(6,8,9)              107.9001         estimate D2E/DX2                !
 ! A26   A(8,9,10)             108.541          estimate D2E/DX2                !
 ! A27   A(5,10,9)             110.3064         estimate D2E/DX2                !
 ! A28   A(5,10,11)            132.2342         estimate D2E/DX2                !
 ! A29   A(9,10,11)            117.0517         estimate D2E/DX2                !
 ! A30   A(10,11,12)           128.283          estimate D2E/DX2                !
 ! A31   A(10,11,22)           123.8291         estimate D2E/DX2                !
 ! A32   A(12,11,22)           107.8638         estimate D2E/DX2                !
 ! A33   A(11,12,13)           127.8956         estimate D2E/DX2                !
 ! A34   A(11,12,15)           107.8336         estimate D2E/DX2                !
 ! A35   A(13,12,15)           123.9563         estimate D2E/DX2                !
 ! A36   A(12,15,16)           136.1905         estimate D2E/DX2                !
 ! A37   A(12,15,21)           106.9143         estimate D2E/DX2                !
 ! A38   A(16,15,21)           116.8823         estimate D2E/DX2                !
 ! A39   A(15,16,17)           124.5806         estimate D2E/DX2                !
 ! A40   A(15,16,18)           118.8964         estimate D2E/DX2                !
 ! A41   A(17,16,18)           116.523          estimate D2E/DX2                !
 ! A42   A(16,17,37)           111.2252         estimate D2E/DX2                !
 ! A43   A(16,17,38)           118.1311         estimate D2E/DX2                !
 ! A44   A(37,17,38)           115.7867         estimate D2E/DX2                !
 ! A45   A(16,18,19)           118.4547         estimate D2E/DX2                !
 ! A46   A(18,19,20)           127.752          estimate D2E/DX2                !
 ! A47   A(18,19,39)           116.0228         estimate D2E/DX2                !
 ! A48   A(20,19,39)           116.2252         estimate D2E/DX2                !
 ! A49   A(19,20,21)           112.5901         estimate D2E/DX2                !
 ! A50   A(15,21,20)           125.42           estimate D2E/DX2                !
 ! A51   A(15,21,22)           108.658          estimate D2E/DX2                !
 ! A52   A(20,21,22)           125.9186         estimate D2E/DX2                !
 ! A53   A(11,22,21)           108.4855         estimate D2E/DX2                !
 ! A54   A(11,22,23)           125.5854         estimate D2E/DX2                !
 ! A55   A(21,22,23)           125.7927         estimate D2E/DX2                !
 ! A56   A(22,23,24)           118.9417         estimate D2E/DX2                !
 ! A57   A(22,23,30)           107.634          estimate D2E/DX2                !
 ! A58   A(22,23,40)           106.8403         estimate D2E/DX2                !
 ! A59   A(24,23,30)           104.0235         estimate D2E/DX2                !
 ! A60   A(24,23,40)           110.0515         estimate D2E/DX2                !
 ! A61   A(30,23,40)           109.032          estimate D2E/DX2                !
 ! A62   A(23,24,25)           101.3911         estimate D2E/DX2                !
 ! A63   A(23,24,41)           111.3799         estimate D2E/DX2                !
 ! A64   A(23,24,42)           112.0311         estimate D2E/DX2                !
 ! A65   A(25,24,41)           108.7798         estimate D2E/DX2                !
 ! A66   A(25,24,42)           113.4175         estimate D2E/DX2                !
 ! A67   A(41,24,42)           109.6102         estimate D2E/DX2                !
 ! A68   A(24,25,26)           107.763          estimate D2E/DX2                !
 ! A69   A(24,25,27)           102.3561         estimate D2E/DX2                !
 ! A70   A(24,25,43)           113.0634         estimate D2E/DX2                !
 ! A71   A(26,25,27)           110.9986         estimate D2E/DX2                !
 ! A72   A(26,25,43)           107.758          estimate D2E/DX2                !
 ! A73   A(27,25,43)           114.6995         estimate D2E/DX2                !
 ! A74   A(25,26,44)           107.1975         estimate D2E/DX2                !
 ! A75   A(25,27,28)           112.9004         estimate D2E/DX2                !
 ! A76   A(25,27,30)           107.0354         estimate D2E/DX2                !
 ! A77   A(25,27,45)           110.7296         estimate D2E/DX2                !
 ! A78   A(28,27,30)           108.1319         estimate D2E/DX2                !
 ! A79   A(28,27,45)           109.674          estimate D2E/DX2                !
 ! A80   A(30,27,45)           108.1973         estimate D2E/DX2                !
 ! A81   A(27,28,29)           110.5892         estimate D2E/DX2                !
 ! A82   A(27,28,46)           111.1442         estimate D2E/DX2                !
 ! A83   A(27,28,47)           109.9149         estimate D2E/DX2                !
 ! A84   A(29,28,46)           109.001          estimate D2E/DX2                !
 ! A85   A(29,28,47)           108.8683         estimate D2E/DX2                !
 ! A86   A(46,28,47)           107.235          estimate D2E/DX2                !
 ! A87   A(28,29,48)           106.9518         estimate D2E/DX2                !
 ! A88   A(23,30,27)           108.2523         estimate D2E/DX2                !
 ! A89   L(12,13,14,1,-1)      182.6121         estimate D2E/DX2                !
 ! A90   L(12,13,14,1,-2)      179.9852         estimate D2E/DX2                !
 ! D1    D(31,1,2,3)           -87.5351         estimate D2E/DX2                !
 ! D2    D(31,1,2,7)            89.2424         estimate D2E/DX2                !
 ! D3    D(32,1,2,3)           151.981          estimate D2E/DX2                !
 ! D4    D(32,1,2,7)           -31.2415         estimate D2E/DX2                !
 ! D5    D(33,1,2,3)            32.982          estimate D2E/DX2                !
 ! D6    D(33,1,2,7)          -150.2405         estimate D2E/DX2                !
 ! D7    D(1,2,3,4)            178.6854         estimate D2E/DX2                !
 ! D8    D(1,2,3,34)            -1.1647         estimate D2E/DX2                !
 ! D9    D(7,2,3,4)              1.8978         estimate D2E/DX2                !
 ! D10   D(7,2,3,34)          -177.9523         estimate D2E/DX2                !
 ! D11   D(1,2,7,6)           -178.697          estimate D2E/DX2                !
 ! D12   D(1,2,7,36)             0.9872         estimate D2E/DX2                !
 ! D13   D(3,2,7,6)             -1.9021         estimate D2E/DX2                !
 ! D14   D(3,2,7,36)           177.7822         estimate D2E/DX2                !
 ! D15   D(2,3,4,5)              0.5456         estimate D2E/DX2                !
 ! D16   D(2,3,4,35)          -178.3541         estimate D2E/DX2                !
 ! D17   D(34,3,4,5)          -179.6025         estimate D2E/DX2                !
 ! D18   D(34,3,4,35)            1.4978         estimate D2E/DX2                !
 ! D19   D(3,4,5,6)             -3.0466         estimate D2E/DX2                !
 ! D20   D(3,4,5,10)          -179.3098         estimate D2E/DX2                !
 ! D21   D(35,4,5,6)           175.8241         estimate D2E/DX2                !
 ! D22   D(35,4,5,10)           -0.4391         estimate D2E/DX2                !
 ! D23   D(4,5,6,7)              3.0716         estimate D2E/DX2                !
 ! D24   D(4,5,6,8)           -176.274          estimate D2E/DX2                !
 ! D25   D(10,5,6,7)          -179.6552         estimate D2E/DX2                !
 ! D26   D(10,5,6,8)             0.9992         estimate D2E/DX2                !
 ! D27   D(4,5,10,9)           174.8069         estimate D2E/DX2                !
 ! D28   D(4,5,10,11)          -12.9328         estimate D2E/DX2                !
 ! D29   D(6,5,10,9)            -1.9353         estimate D2E/DX2                !
 ! D30   D(6,5,10,11)          170.325          estimate D2E/DX2                !
 ! D31   D(5,6,7,2)             -0.5144         estimate D2E/DX2                !
 ! D32   D(5,6,7,36)           179.7954         estimate D2E/DX2                !
 ! D33   D(8,6,7,2)            178.6819         estimate D2E/DX2                !
 ! D34   D(8,6,7,36)            -1.0083         estimate D2E/DX2                !
 ! D35   D(5,6,8,9)              0.2894         estimate D2E/DX2                !
 ! D36   D(7,6,8,9)           -178.9702         estimate D2E/DX2                !
 ! D37   D(6,8,9,10)            -1.5125         estimate D2E/DX2                !
 ! D38   D(8,9,10,5)             2.2184         estimate D2E/DX2                !
 ! D39   D(8,9,10,11)         -171.3533         estimate D2E/DX2                !
 ! D40   D(5,10,11,12)         -33.5239         estimate D2E/DX2                !
 ! D41   D(5,10,11,22)         148.4853         estimate D2E/DX2                !
 ! D42   D(9,10,11,12)         138.323          estimate D2E/DX2                !
 ! D43   D(9,10,11,22)         -39.6677         estimate D2E/DX2                !
 ! D44   D(10,11,12,13)         -1.0844         estimate D2E/DX2                !
 ! D45   D(10,11,12,15)       -174.7788         estimate D2E/DX2                !
 ! D46   D(22,11,12,13)        177.1621         estimate D2E/DX2                !
 ! D47   D(22,11,12,15)          3.4677         estimate D2E/DX2                !
 ! D48   D(10,11,22,21)        173.2852         estimate D2E/DX2                !
 ! D49   D(10,11,22,23)        -10.7686         estimate D2E/DX2                !
 ! D50   D(12,11,22,21)         -5.0579         estimate D2E/DX2                !
 ! D51   D(12,11,22,23)        170.8884         estimate D2E/DX2                !
 ! D52   D(11,12,15,16)        177.9662         estimate D2E/DX2                !
 ! D53   D(11,12,15,21)         -0.6222         estimate D2E/DX2                !
 ! D54   D(13,12,15,16)          3.964          estimate D2E/DX2                !
 ! D55   D(13,12,15,21)       -174.6244         estimate D2E/DX2                !
 ! D56   D(12,15,16,17)          1.9005         estimate D2E/DX2                !
 ! D57   D(12,15,16,18)       -178.1532         estimate D2E/DX2                !
 ! D58   D(21,15,16,17)       -179.6137         estimate D2E/DX2                !
 ! D59   D(21,15,16,18)          0.3326         estimate D2E/DX2                !
 ! D60   D(12,15,21,20)        178.1342         estimate D2E/DX2                !
 ! D61   D(12,15,21,22)         -2.5024         estimate D2E/DX2                !
 ! D62   D(16,15,21,20)         -0.7703         estimate D2E/DX2                !
 ! D63   D(16,15,21,22)        178.5932         estimate D2E/DX2                !
 ! D64   D(15,16,17,37)       -165.9327         estimate D2E/DX2                !
 ! D65   D(15,16,17,38)        -28.4698         estimate D2E/DX2                !
 ! D66   D(18,16,17,37)         14.1199         estimate D2E/DX2                !
 ! D67   D(18,16,17,38)        151.5828         estimate D2E/DX2                !
 ! D68   D(15,16,18,19)          0.2172         estimate D2E/DX2                !
 ! D69   D(17,16,18,19)       -179.8323         estimate D2E/DX2                !
 ! D70   D(16,18,19,20)         -0.4598         estimate D2E/DX2                !
 ! D71   D(16,18,19,39)        179.638          estimate D2E/DX2                !
 ! D72   D(18,19,20,21)          0.0767         estimate D2E/DX2                !
 ! D73   D(39,19,20,21)        179.9788         estimate D2E/DX2                !
 ! D74   D(19,20,21,15)          0.5612         estimate D2E/DX2                !
 ! D75   D(19,20,21,22)       -178.6942         estimate D2E/DX2                !
 ! D76   D(15,21,22,11)          4.695          estimate D2E/DX2                !
 ! D77   D(15,21,22,23)       -171.2407         estimate D2E/DX2                !
 ! D78   D(20,21,22,11)       -175.9455         estimate D2E/DX2                !
 ! D79   D(20,21,22,23)          8.1188         estimate D2E/DX2                !
 ! D80   D(11,22,23,24)       -162.9178         estimate D2E/DX2                !
 ! D81   D(11,22,23,30)        -45.1213         estimate D2E/DX2                !
 ! D82   D(11,22,23,40)         71.8614         estimate D2E/DX2                !
 ! D83   D(21,22,23,24)         12.341          estimate D2E/DX2                !
 ! D84   D(21,22,23,30)        130.1375         estimate D2E/DX2                !
 ! D85   D(21,22,23,40)       -112.8798         estimate D2E/DX2                !
 ! D86   D(22,23,24,25)        159.9117         estimate D2E/DX2                !
 ! D87   D(22,23,24,41)         44.346          estimate D2E/DX2                !
 ! D88   D(22,23,24,42)        -78.8314         estimate D2E/DX2                !
 ! D89   D(30,23,24,25)         40.2474         estimate D2E/DX2                !
 ! D90   D(30,23,24,41)        -75.3183         estimate D2E/DX2                !
 ! D91   D(30,23,24,42)        161.5043         estimate D2E/DX2                !
 ! D92   D(40,23,24,25)        -76.4298         estimate D2E/DX2                !
 ! D93   D(40,23,24,41)        168.0045         estimate D2E/DX2                !
 ! D94   D(40,23,24,42)         44.8271         estimate D2E/DX2                !
 ! D95   D(22,23,30,27)       -154.0083         estimate D2E/DX2                !
 ! D96   D(24,23,30,27)        -26.9396         estimate D2E/DX2                !
 ! D97   D(40,23,30,27)         90.4468         estimate D2E/DX2                !
 ! D98   D(23,24,25,26)         79.6243         estimate D2E/DX2                !
 ! D99   D(23,24,25,27)        -37.4654         estimate D2E/DX2                !
 ! D100  D(23,24,25,43)       -161.3968         estimate D2E/DX2                !
 ! D101  D(41,24,25,26)       -162.9051         estimate D2E/DX2                !
 ! D102  D(41,24,25,27)         80.0052         estimate D2E/DX2                !
 ! D103  D(41,24,25,43)        -43.9262         estimate D2E/DX2                !
 ! D104  D(42,24,25,26)        -40.6574         estimate D2E/DX2                !
 ! D105  D(42,24,25,27)       -157.7471         estimate D2E/DX2                !
 ! D106  D(42,24,25,43)         78.3215         estimate D2E/DX2                !
 ! D107  D(24,25,26,44)       -178.6692         estimate D2E/DX2                !
 ! D108  D(27,25,26,44)        -67.3449         estimate D2E/DX2                !
 ! D109  D(43,25,26,44)         59.0184         estimate D2E/DX2                !
 ! D110  D(24,25,27,28)        -96.4341         estimate D2E/DX2                !
 ! D111  D(24,25,27,30)         22.4323         estimate D2E/DX2                !
 ! D112  D(24,25,27,45)        140.1549         estimate D2E/DX2                !
 ! D113  D(26,25,27,28)        148.8188         estimate D2E/DX2                !
 ! D114  D(26,25,27,30)        -92.3149         estimate D2E/DX2                !
 ! D115  D(26,25,27,45)         25.4077         estimate D2E/DX2                !
 ! D116  D(43,25,27,28)         26.398          estimate D2E/DX2                !
 ! D117  D(43,25,27,30)        145.2643         estimate D2E/DX2                !
 ! D118  D(43,25,27,45)        -97.0131         estimate D2E/DX2                !
 ! D119  D(25,27,28,29)        -62.8803         estimate D2E/DX2                !
 ! D120  D(25,27,28,46)         58.3309         estimate D2E/DX2                !
 ! D121  D(25,27,28,47)        176.8858         estimate D2E/DX2                !
 ! D122  D(30,27,28,29)        178.8921         estimate D2E/DX2                !
 ! D123  D(30,27,28,46)        -59.8968         estimate D2E/DX2                !
 ! D124  D(30,27,28,47)         58.6582         estimate D2E/DX2                !
 ! D125  D(45,27,28,29)         61.1131         estimate D2E/DX2                !
 ! D126  D(45,27,28,46)       -177.6757         estimate D2E/DX2                !
 ! D127  D(45,27,28,47)        -59.1207         estimate D2E/DX2                !
 ! D128  D(25,27,30,23)          2.8576         estimate D2E/DX2                !
 ! D129  D(28,27,30,23)        124.7679         estimate D2E/DX2                !
 ! D130  D(45,27,30,23)       -116.5103         estimate D2E/DX2                !
 ! D131  D(27,28,29,48)       -175.0165         estimate D2E/DX2                !
 ! D132  D(46,28,29,48)         62.5113         estimate D2E/DX2                !
 ! D133  D(47,28,29,48)        -54.1583         estimate D2E/DX2                !
 --------------------------------------------------------------------------------
 Trust Radius=3.00D-01 FncErr=1.00D-07 GrdErr=1.00D-06 EigMax=2.50D+02 EigMin=1.00D-04
 Number of steps in this run=    285 maximum allowed number of steps=    288.
 GradGradGradGradGradGradGradGradGradGradGradGradGradGradGradGradGradGrad

 Leave Link  103 at Tue Dec  5 14:38:14 2023, MaxMem=  2147483648 cpu:               2.1 elap:               0.2
 (Enter /opt/gaussian/g16-c01/g16/l202.exe)
                          Input orientation:                          
 ---------------------------------------------------------------------
 Center     Atomic      Atomic             Coordinates (Angstroms)
 Number     Number       Type             X           Y           Z
 ---------------------------------------------------------------------
      1          6           0        5.584708   -3.340653   -0.769277
      2          6           0        4.432932   -2.429580   -0.457042
      3          6           0        3.964956   -1.528407   -1.421866
      4          6           0        2.875207   -0.682391   -1.174773
      5          6           0        2.271774   -0.762239    0.087548
      6          6           0        2.685358   -1.684160    1.043836
      7          6           0        3.777300   -2.525551    0.781126
      8          7           0        1.882691   -1.605288    2.143810
      9          7           0        0.971545   -0.671177    1.916758
     10          7           0        1.204482   -0.129710    0.697424
     11          6           0        0.463131    1.000741    0.353105
     12          6           0        0.896310    2.147149   -0.291489
     13          6           0        2.216930    2.455375   -0.740838
     14          7           0        3.274644    2.756273   -1.110213
     15          6           0       -0.185931    3.069510   -0.313972
     16          6           0       -0.389690    4.383001   -0.770293
     17          7           0        0.565603    5.146484   -1.418573
     18          7           0       -1.589515    4.960044   -0.575932
     19          6           0       -2.544427    4.254994    0.052556
     20          7           0       -2.464006    3.002975    0.523614
     21          6           0       -1.259844    2.447744    0.310062
     22          7           0       -0.886350    1.165909    0.658149
     23          6           0       -1.776213    0.125434    1.169624
     24          6           0       -3.284146    0.336710    1.084703
     25          6           0       -3.791183   -1.079918    1.208855
     26          8           0       -3.762734   -1.433632    2.594100
     27          6           0       -2.746686   -1.872002    0.419019
     28          6           0       -3.173384   -2.145777   -1.023769
     29          8           0       -4.342728   -2.953301   -1.054531
     30          8           0       -1.544912   -1.073408    0.388132
     31          1           0        5.218025   -4.261270   -1.233498
     32          1           0        6.136816   -3.598289    0.140682
     33          1           0        6.291405   -2.856157   -1.451212
     34          1           0        4.452501   -1.477138   -2.395172
     35          1           0        2.518669   -0.013807   -1.950746
     36          1           0        4.095144   -3.239543    1.534304
     37          1           0        0.293384    6.122911   -1.453762
     38          1           0        1.539150    4.968453   -1.211493
     39          1           0       -3.494925    4.760685    0.193779
     40          1           0       -1.480877   -0.062565    2.208664
     41          1           0       -3.577735    0.732046    0.105390
     42          1           0       -3.650670    1.000484    1.873588
     43          1           0       -4.818903   -1.199597    0.855131
     44          1           0       -4.070986   -2.355625    2.662454
     45          1           0       -2.515961   -2.818357    0.921473
     46          1           0       -3.370578   -1.211893   -1.561523
     47          1           0       -2.370132   -2.664863   -1.558413
     48          1           0       -4.520150   -3.160627   -1.989496
 ---------------------------------------------------------------------
                    Distance matrix (angstroms):
                    1          2          3          4          5
     1  C    0.000000
     2  C    1.501377   0.000000
     3  C    2.516685   1.400714   0.000000
     4  C    3.817352   2.448329   1.401553   0.000000
     5  C    4.284612   2.783381   2.394203   1.401414   0.000000
     6  C    3.799681   2.421219   2.782322   2.441682   1.391214
     7  C    2.516916   1.404323   2.425425   2.834881   2.420109
     8  N    5.020209   3.734651   4.129865   3.584665   2.256176
     9  N    5.968430   4.550616   4.565278   3.630650   2.246085
    10  N    5.625633   4.128569   3.750728   2.569416   1.382445
    11  C    6.807202   5.308744   4.670106   3.314431   2.539647
    12  C    7.233625   5.786325   4.919761   3.564060   3.240387
    13  C    6.703483   5.371591   4.403398   3.235306   3.322991
    14  N    6.528793   5.353628   4.351108   3.462388   3.849715
    15  C    8.637000   7.182921   6.292705   4.918161   4.569883
    16  C    9.764644   8.352668   7.371040   6.039980   5.856003
    17  N    9.881523   8.560229   7.490646   6.274511   6.331858
    18  N   10.973077   9.533653   8.582992   7.220071   6.935004
    19  C   11.155810   9.676092   8.831405   7.433474   6.954829
    20  N   10.329326   8.834144   8.102461   6.706239   6.065855
    21  C    9.028754   7.535545   6.790279   5.394546   4.777638
    22  N    8.013815   6.516591   5.926295   4.574399   3.743940
    23  C    8.363986   6.908518   6.512452   5.271099   4.283112
    24  C    9.778385   8.341620   7.893734   6.639385   5.750674
    25  C    9.845367   8.498992   8.202410   7.090872   6.173953
    26  O   10.115518   8.801723   8.709429   7.670139   6.568779
    27  C    8.542898   7.254329   6.968002   5.963307   5.150377
    28  C    8.842888   7.632678   7.176038   6.224930   5.727037
    29  O    9.939084   8.811554   8.436994   7.567700   7.060930
    30  O    7.570434   6.187741   5.817367   4.704574   3.841129
    31  H    1.094300   2.138771   3.012342   4.277922   4.761174
    32  H    1.095091   2.150901   3.382742   4.568476   4.794221
    33  H    1.095076   2.150410   2.678833   4.058582   4.786409
    34  H    2.719948   2.159601   1.089795   2.146824   3.380910
    35  H    4.675935   3.425130   2.159971   1.084554   2.185349
    36  H    2.745088   2.176143   3.418169   3.919996   3.399238
    37  H   10.863962   9.553764   8.486703   7.283940   7.327684
    38  H    9.252207   7.979603   6.938154   5.806758   5.921577
    39  H   12.206510  10.722611   9.890036   8.489911   7.985536
    40  H    8.338854   6.905207   6.707200   5.550432   4.367043
    41  H   10.064903   8.630353   8.020869   6.729035   6.037380
    42  H   10.541462   9.085252   8.674853   7.396732   6.432144
    43  H   10.745136   9.425026   9.080144   7.974167   7.145500
    44  H   10.294634   9.058330   9.052200   8.110094   7.028487
    45  H    8.291699   7.094968   7.011241   6.166141   5.276880
    46  H    9.238854   7.974798   7.343687   6.280110   5.895571
    47  H    8.022400   6.895655   6.437664   5.620583   5.279816
    48  H   10.179858   9.112657   8.659294   7.841985   7.496440
                    6          7          8          9         10
     6  C    0.000000
     7  C    1.403315   0.000000
     8  N    1.363979   2.508652   0.000000
     9  N    2.173771   3.549736   1.324501   0.000000
    10  N    2.174698   3.516597   2.174702   1.354334   0.000000
    11  C    3.553040   4.858153   3.466001   2.344953   1.395018
    12  C    4.434266   5.593276   4.580875   3.581198   2.501401
    13  C    4.532134   5.436980   4.992183   4.288255   3.126710
    14  N    4.970375   5.632716   5.616886   5.119984   3.985225
    15  C    5.717108   6.943425   5.672180   4.506512   3.631966
    16  C    7.039704   8.215765   7.036712   5.883699   5.006010
    17  N    7.564028   8.603127   7.746723   6.718214   5.720475
    18  N    8.064963   9.310126   7.909285   6.669571   5.944195
    19  C    7.975389   9.298970   7.636467   6.332809   5.804809
    20  N    6.982536   8.341751   6.538723   5.219507   4.827186
    21  C    5.759833   7.094250   5.446579   4.157913   3.586952
    22  N    4.585711   5.949087   4.189786   2.900130   2.460030
    23  C    4.816230   6.166049   4.163174   2.956852   3.028632
    24  C    6.302425   7.625531   5.620433   4.451860   4.529383
    25  C    6.506760   7.717172   5.774340   4.832367   5.110883
    26  O    6.636563   7.831429   5.665955   4.842884   5.474562
    27  C    5.471086   6.566631   4.947441   4.184548   4.327218
    28  C    6.230003   7.191236   5.990791   5.291652   5.117885
    29  O    7.443645   8.335914   7.127578   6.502165   6.466340
    30  O    4.324136   5.530742   3.887642   2.971707   2.923251
    31  H    4.271083   3.024420   5.439201   6.391046   6.075095
    32  H    4.048721   2.669878   5.107069   6.196971   6.055487
    33  H    4.538988   3.378366   5.824570   6.664703   6.158485
    34  H    3.872006   3.412321   5.217538   5.599944   4.682877
    35  H    3.432985   3.918690   4.438769   4.217027   2.958602
    36  H    2.155753   1.085397   2.817310   4.061976   4.327512
    37  H    8.538729   9.587924   8.671417   7.614456   6.674801
    38  H    7.117413   8.070932   7.388515   6.474068   5.454102
    39  H    8.969644  10.311133   8.558445   7.240382   6.801033
    40  H    4.619947   5.979347   3.701053   2.543618   3.082127
    41  H    6.778279   8.072490   6.279693   5.093725   4.895174
    42  H    6.931165   8.294645   6.122185   4.915403   5.121836
    43  H    7.522257   8.698180   6.836420   5.910632   6.119697
    44  H    6.979898   8.072414   6.023144   5.368477   6.053644
    45  H    5.324950   6.301632   4.723747   4.214697   4.595728
    46  H    6.609485   7.635827   6.440581   5.589709   5.215854
    47  H    5.769875   6.579040   5.737217   5.217126   4.928861
    48  H    7.956155   8.770823   7.778153   7.184351   7.012661
                   11         12         13         14         15
    11  C    0.000000
    12  C    1.384701   0.000000
    13  C    2.527545   1.428620   0.000000
    14  N    3.623230   2.588013   1.160059   0.000000
    15  C    2.268497   1.422147   2.516569   3.564786   0.000000
    16  C    3.664561   2.623373   3.242079   4.023572   1.405349
    17  N    4.509604   3.221133   3.229284   3.625893   2.469568
    18  N    4.555496   3.764653   4.559560   5.366759   2.369133
    19  C    4.441385   4.049697   5.151565   6.120440   2.664999
    20  N    3.550513   3.562100   4.879535   5.971797   2.428086
    21  C    2.250403   2.258588   3.632135   4.761717   1.388993
    22  N    1.393353   2.245556   3.640087   4.792727   2.249289
    23  C    2.539198   3.655757   5.002368   6.134340   3.660278
    24  C    3.875340   4.758971   6.171157   7.327323   4.361585
    25  C    4.812550   5.885370   7.238579   8.367816   5.703911
    26  O    5.367138   6.546397   7.874171   8.988989   6.444276
    27  C    4.308123   5.470815   6.686475   7.746993   5.613669
    28  C    5.002059   5.960525   7.092682   8.100286   6.052099
    29  O    6.380609   7.351486   8.507720   9.519805   7.355382
    30  O    2.887137   4.097980   5.279994   6.335583   4.416282
    31  H    7.267399   7.786683   7.373100   7.282708   9.153612
    32  H    7.306634   7.788436   7.265634   7.080764   9.200184
    33  H    7.218033   7.448831   6.731891   6.380948   8.852272
    34  H    5.441322   5.496129   4.816561   4.578235   6.820444
    35  H    3.249965   3.170948   2.766186   2.991879   4.415964
    36  H    5.706729   6.525528   6.413739   6.604279   7.845246
    37  H    5.434170   4.185819   4.202274   4.510010   3.294256
    38  H    4.398696   3.036348   2.645083   2.813528   2.717983
    39  H    5.461572   5.133128   6.230028   7.179494   3.750643
    40  H    2.890136   4.096904   5.358485   6.447928   4.224982
    41  H    4.057358   4.709258   6.104433   7.247778   4.140524
    42  H    4.385798   5.165019   6.586400   7.742470   4.590284
    43  H    5.743988   6.721540   8.087576   9.220466   6.407535
    44  H    6.095613   7.326308   8.617773   9.711992   7.306494
    45  H    4.876837   6.145821   7.278447   8.290679   6.451538
    46  H    4.822746   5.576960   6.733693   7.752999   5.479851
    47  H    5.011779   5.952327   6.922890   7.839202   6.261182
    48  H    6.902018   7.771342   8.859282   9.825561   7.772222
                   16         17         18         19         20
    16  C    0.000000
    17  N    1.384109   0.000000
    18  N    1.345487   2.321495   0.000000
    19  C    2.310056   3.554049   1.343112   0.000000
    20  N    2.807393   4.188705   2.409119   1.340117   0.000000
    21  C    2.381083   3.688310   2.684273   2.232177   1.343090
    22  N    3.554828   4.718678   4.051278   3.557866   2.425265
    23  C    4.879816   6.115048   5.143469   4.346408   3.028305
    24  C    5.309553   6.649878   5.196605   4.118915   2.845421
    25  C    6.732805   8.040712   6.671877   5.599349   4.347524
    26  O    7.518629   8.839342   7.459965   6.348558   5.065283
    27  C    6.789327   7.975409   7.000416   6.141277   4.884286
    28  C    7.101982   8.204448   7.293963   6.521038   5.422846
    29  O    8.338383   9.477909   8.392274   7.511261   6.441845
    30  O    5.696392   6.812159   6.110152   5.431713   4.180907
    31  H   10.314284  10.496910  11.480750  11.594669  10.717756
    32  H   10.350176  10.485263  11.552263  11.706656  10.848846
    33  H    9.874517   9.840129  11.134092  11.441229  10.718516
    34  H    7.773563   7.741711   9.014039   9.370470   8.742356
    35  H    5.402216   5.543129   6.595944   6.918874   6.328545
    36  H    9.139370   9.565699  10.198121  10.121638   9.111146
    37  H    1.990228   1.014274   2.380788   3.716353   4.609470
    38  H    2.063452   1.011124   3.192578   4.333872   4.785286
    39  H    3.273311   4.385933   2.064652   1.085870   2.064250
    40  H    5.461495   6.669267   5.743899   4.941787   3.633658
    41  H    4.925436   6.243154   4.721566   3.671741   2.563674
    42  H    5.391245   6.767909   5.091819   3.889957   2.690831
    43  H    7.309263   8.627594   7.100568   5.964053   4.828774
    44  H    8.410991   9.717735   8.376387   7.269266   5.989292
    45  H    7.696925   8.854973   7.975214   7.126579   5.835143
    46  H    6.388629   7.479500   6.498952   5.759742   4.789027
    47  H    7.363129   8.345971   7.727473   7.107040   6.038877
    48  H    8.686396   9.756994   8.748262   7.941341   6.966595
                   21         22         23         24         25
    21  C    0.000000
    22  N    1.379769   0.000000
    23  C    2.529547   1.461524   0.000000
    24  C    3.025613   2.572731   1.525028   0.000000
    25  C    4.433949   3.712825   2.348301   1.509747   0.000000
    26  O    5.152317   4.333486   2.899325   2.375171   1.429974
    27  C    4.569768   3.570285   2.344137   2.368630   1.530429
    28  C    5.151813   4.361953   3.452747   3.258936   2.549969
    29  O    6.366913   5.643378   4.583937   4.064614   2.989428
    30  O    3.533535   2.349714   1.449639   2.344905   2.391519
    31  H    9.452843   8.384271   8.598694   9.939939   9.861639
    32  H    9.554778   8.502365   8.805729  10.253288  10.297978
    33  H    9.394403   8.493915   8.991392  10.407519  10.577786
    34  H    7.440018   6.694161   7.353427   8.674980   9.005838
    35  H    5.044566   4.448844   5.310566   6.558161   7.136799
    36  H    7.906953   6.707528   6.777086   8.212530   8.183157
    37  H    4.362390   5.515778   6.865502   7.261036   8.697929
    38  H    4.062446   4.882413   6.333734   7.070343   8.417442
    39  H    3.218510   4.465727   5.039027   4.517713   5.935553
    40  H    3.155186   2.065601   1.096436   2.162056   2.715168
    41  H    2.891043   2.781606   2.178544   1.096147   2.132231
    42  H    3.202378   3.024256   2.185147   1.094201   2.188535
    43  H    5.125144   4.593408   3.333553   2.183672   1.093459
    44  H    6.042236   5.153673   3.694615   3.218242   1.954141
    45  H    5.448254   4.312696   3.045441   3.251338   2.175075
    46  H    4.620711   4.092954   3.433600   3.067271   2.805231
    47  H    5.555420   4.667930   3.947237   4.102551   3.491305
    48  H    6.882688   6.239667   5.320472   4.817652   3.884610
                   26         27         28         29         30
    26  O    0.000000
    27  C    2.440389   0.000000
    28  C    3.734094   1.529268   0.000000
    29  O    3.994783   2.426501   1.421410   0.000000
    30  O    3.148776   1.443249   2.407356   3.666476   0.000000
    31  H   10.163664   8.477974   8.656503   9.651467   7.650455
    32  H   10.426221   9.053957   9.494502  10.567184   8.089821
    33  H   10.930409   9.281886   9.501030  10.641972   8.244346
    34  H    9.611702   7.739760   7.777014   9.018449   6.624103
    35  H    7.882103   6.065694   6.148500   7.518151   4.806849
    36  H    8.132080   7.065739   7.782773   8.830724   6.149478
    37  H    9.483598   8.756025   8.976334  10.199536   7.652380
    38  H    9.142166   8.235216   8.535542   9.867893   6.969528
    39  H    6.648521   6.678558   7.020330   7.860193   6.154426
    40  H    2.689843   2.842387   4.201544   5.214881   2.083324
    41  H    3.304249   2.751376   3.117750   3.938580   2.733492
    42  H    2.540987   3.344269   4.303654   4.968424   3.307843
    43  H    2.047994   2.221802   2.670815   2.636101   3.309536
    44  H    0.974558   2.649653   3.799732   3.774525   3.632860
    45  H    2.503914   1.096030   2.160679   2.694416   2.066939
    46  H    4.179971   2.178883   1.095538   2.057819   2.674582
    47  H    4.549575   2.163483   1.095677   2.056266   2.646272
    48  H    4.956364   3.256789   1.943278   0.973972   4.342999
                   31         32         33         34         35
    31  H    0.000000
    32  H    1.781037   0.000000
    33  H    1.781540   1.763174   0.000000
    34  H    3.112379   3.710358   2.484818   0.000000
    35  H    5.083494   5.505776   4.749950   2.465473   0.000000
    36  H    3.156821   2.497860   3.726104   4.321407   5.003621
    37  H   11.494861  11.453806  10.798144   8.714657   6.546617
    38  H    9.935914   9.816108   9.157834   7.171775   5.131166
    39  H   12.623323  12.753262  12.509777  10.429510   7.972332
    40  H    8.622812   8.649112   9.033671   7.642074   5.770566
    41  H   10.202510  10.636049  10.615938   8.695861   6.476892
    42  H   10.770041  10.952012  11.170176   9.488008   7.329056
    43  H   10.699352  11.237969  11.467448   9.828552   7.944747
    44  H   10.251617  10.587860  11.160283   9.949932   8.377904
    45  H    8.157232   8.722871   9.121445   7.833164   6.439149
    46  H    9.119781   9.949016   9.801515   7.871842   6.022469
    47  H    7.761070   8.725043   8.664312   6.975613   5.575159
    48  H    9.829293  10.876586  10.829228   9.138226   7.710315
                   36         37         38         39         40
    36  H    0.000000
    37  H   10.537431   0.000000
    38  H    9.024617   1.715634   0.000000
    39  H   11.108996   4.349866   5.230666   0.000000
    40  H    6.452903   7.404153   6.791847   5.601776   0.000000
    41  H    8.757191   6.817473   6.772284   4.030459   3.074408
    42  H    8.836887   7.270906   7.224731   4.121302   2.439334
    43  H    9.169672   9.224185   9.096187   6.141276   3.777209
    44  H    8.290942  10.386363  10.006159   7.554341   3.488942
    45  H    6.652794   9.668528   9.034815   7.676574   3.212888
    46  H    8.332617   8.199730   7.900926   6.226414   4.371068
    47  H    7.189920   9.183150   8.583144   7.711945   4.664075
    48  H    9.308420  10.470969  10.168694   8.280396   6.038188
                   41         42         43         44         45
    41  H    0.000000
    42  H    1.789945   0.000000
    43  H    2.415337   2.691167   0.000000
    44  H    4.039256   3.473103   2.272047   0.000000
    45  H    3.794564   4.096051   2.815729   2.379756   0.000000
    46  H    2.569127   4.095492   2.817448   4.431780   3.078371
    47  H    3.970584   5.182005   3.737470   4.561168   2.488908
    48  H    4.519911   5.744063   3.467967   4.742406   3.550727
                   46         47         48
    46  H    0.000000
    47  H    1.764093   0.000000
    48  H    2.302660   2.248153   0.000000
 Stoichiometry    C19H18N8O3
 Framework group  C1[X(C19H18N8O3)]
 Deg. of freedom   138
 Full point group                 C1      NOp   1
 Largest Abelian subgroup         C1      NOp   1
 Largest concise Abelian subgroup C1      NOp   1
                         Standard orientation:                         
 ---------------------------------------------------------------------
 Center     Atomic      Atomic             Coordinates (Angstroms)
 Number     Number       Type             X           Y           Z
 ---------------------------------------------------------------------
      1          6           0       -6.645159   -0.787299    0.595261
      2          6           0       -5.195717   -0.504071    0.325015
      3          6           0       -4.458330    0.299355    1.204087
      4          6           0       -3.097224    0.562561    0.998022
      5          6           0       -2.496968   -0.002141   -0.135454
      6          6           0       -3.194776   -0.844516   -0.995074
      7          6           0       -4.557003   -1.099634   -0.774746
      8          7           0       -2.358787   -1.316697   -1.963891
      9          7           0       -1.155032   -0.809079   -1.745720
     10          7           0       -1.221243    0.008408   -0.667966
     11          6           0       -0.095202    0.783289   -0.389279
     12          6           0       -0.042791    2.108961    0.007261
     13          6           0       -1.134113    3.009219    0.206022
     14          7           0       -1.985805    3.780329    0.366480
     15          6           0        1.324840    2.496323    0.052391
     16          6           0        2.036261    3.675102    0.334111
     17          7           0        1.454310    4.872121    0.713896
     18          7           0        3.378098    3.663934    0.235712
     19          6           0        3.983218    2.523096   -0.133432
     20          7           0        3.410278    1.346121   -0.420460
     21          6           0        2.072463    1.382286   -0.307166
     22          7           0        1.213774    0.322035   -0.512797
     23          6           0        1.608786   -1.068631   -0.727428
     24          6           0        3.052411   -1.476517   -0.453043
     25          6           0        2.914102   -2.971017   -0.289715
     26          8           0        2.836604   -3.547325   -1.596118
     27          6           0        1.577995   -3.097820    0.445780
     28          6           0        1.742756   -3.231980    1.960216
     29          8           0        2.450357   -4.421849    2.282582
     30          8           0        0.832938   -1.890616    0.180234
     31          1           0       -6.740483   -1.666532    1.239742
     32          1           0       -7.187789   -0.971556   -0.337920
     33          1           0       -7.124396    0.066344    1.085993
     34          1           0       -4.945627    0.734633    2.076284
     35          1           0       -2.546030    1.166653    1.710423
     36          1           0       -5.094311   -1.755491   -1.452417
     37          1           0        2.113774    5.639552    0.643843
     38          1           0        0.515409    5.068392    0.394030
     39          1           0        5.066022    2.560080   -0.206110
     40          1           0        1.336601   -1.320525   -1.759240
     41          1           0        3.415742   -1.050662    0.489388
     42          1           0        3.722445   -1.188363   -1.268700
     43          1           0        3.764356   -3.426113    0.225656
     44          1           0        2.726091   -4.508711   -1.480855
     45          1           0        1.002181   -3.947136    0.060575
     46          1           0        2.280493   -2.373220    2.376837
     47          1           0        0.758866   -3.263451    2.441338
     48          1           0        2.455025   -4.495189    3.253778
 ---------------------------------------------------------------------
 Rotational constants (GHZ):           0.1774957           0.1337925           0.0868616
 Leave Link  202 at Tue Dec  5 14:38:14 2023, MaxMem=  2147483648 cpu:               7.6 elap:               0.4
 (Enter /opt/gaussian/g16-c01/g16/l301.exe)
 Standard basis: 6-311++G(d,p) (5D, 7F)
 Ernie: Thresh=  0.10000D-02 Tol=  0.10000D-05 Strict=F.
 There are   816 symmetry adapted cartesian basis functions of A   symmetry.
 There are   786 symmetry adapted basis functions of A   symmetry.
   786 basis functions,  1242 primitive gaussians,   816 cartesian basis functions
   106 alpha electrons      106 beta electrons
       nuclear repulsion energy      2910.8647224739 Hartrees.
 IExCor= 7252 DFT=T Ex+Corr=MN15 ExCW=0 ScaHFX=  0.440000
 ScaDFX=  1.000000  1.000000  1.000000  1.000000 ScalE2=  1.000000  1.000000
 IRadAn=      5 IRanWt=     -1 IRanGd=            0 ICorTp=0 IEmpDi=  4
 NAtoms=   48 NActive=   48 NUniq=   48 SFac= 1.00D+00 NAtFMM=   60 NAOKFM=F Big=F
 Integral buffers will be    131072 words long.
 Raffenetti 2 integral format.
 Two-electron integral symmetry is turned on.
 Leave Link  301 at Tue Dec  5 14:38:14 2023, MaxMem=  2147483648 cpu:               3.1 elap:               0.2
 (Enter /opt/gaussian/g16-c01/g16/l302.exe)
 NPDir=0 NMtPBC=     1 NCelOv=     1 NCel=       1 NClECP=     1 NCelD=      1
         NCelK=      1 NCelE2=     1 NClLst=     1 CellRange=     0.0.
 One-electron integrals computed using PRISM.
 One-electron integral symmetry used in STVInt
 NBasis=   786 RedAO= T EigKep=  1.09D-06  NBF=   786
 NBsUse=   781 1.00D-06 EigRej=  6.43D-07 NBFU=   781
 Precomputing XC quadrature grid using
 IXCGrd= 4 IRadAn=           5 IRanWt=          -1 IRanGd=           0 AccXCQ= 0.00D+00.
 Generated NRdTot=       0 NPtTot=           0 NUsed=           0 NTot=          32
 NSgBfM=   800   800   800   800   800 MxSgAt=    48 MxSgA2=    48.
 Leave Link  302 at Tue Dec  5 14:40:06 2023, MaxMem=  2147483648 cpu:            2782.5 elap:             111.6
 (Enter /opt/gaussian/g16-c01/g16/l303.exe)
 DipDrv:  MaxL=1.
 Leave Link  303 at Tue Dec  5 14:40:07 2023, MaxMem=  2147483648 cpu:              12.8 elap:               0.9
 (Enter /opt/gaussian/g16-c01/g16/l401.exe)
 ExpMin= 3.60D-02 ExpMax= 8.59D+03 ExpMxC= 1.30D+03 IAcc=3 IRadAn=         5 AccDes= 0.00D+00
 Harris functional with IExCor= 1009 and IRadAn=       5 diagonalized for initial guess.
 HarFok:  IExCor= 1009 AccDes= 0.00D+00 IRadAn=         5 IDoV= 1 UseB2=F ITyADJ=14
 ICtDFT=  3500011 ScaDFX=  1.000000  1.000000  1.000000  1.000000
 FoFCou: FMM=F IPFlag=           0 FMFlag=      100000 FMFlg1=           0
         NFxFlg=           0 DoJE=T BraDBF=F KetDBF=T FulRan=T
         wScrn=  0.000000 ICntrl=       500 IOpCl=  0 I1Cent=   200000004 NGrid=           0
         NMat0=    1 NMatS0=      1 NMatT0=    0 NMatD0=    1 NMtDS0=    0 NMtDT0=    0
 Petite list used in FoFCou.
 Harris En= -1397.50588644949    
 JPrj=0 DoOrth=F DoCkMO=F.
 Leave Link  401 at Tue Dec  5 14:40:42 2023, MaxMem=  2147483648 cpu:             877.4 elap:              35.2
 (Enter /opt/gaussian/g16-c01/g16/l502.exe)
 Integral symmetry usage will be decided dynamically.
 Closed shell SCF:
 Using DIIS extrapolation, IDIIS=  1040.
 NGot=  2147483648 LenX=  2146122010 LenY=  2145455338
 Requested convergence on RMS density matrix=1.00D-08 within 128 cycles.
 Requested convergence on MAX density matrix=1.00D-06.
 Requested convergence on             energy=1.00D-06.
 No special actions if energy rises.
 Fock matrices will be formed incrementally for  20 cycles.

 Cycle   1  Pass 1  IDiag  1:
 FoFJK:  IHMeth= 1 ICntrl=       0 DoSepK=F KAlg= 0 I1Cent=           0 FoldK=F
 IRaf= 760000000 NMat=       1 IRICut=       1 DoRegI=T DoRafI=F ISym2E= 0 IDoP0=0 IntGTp=1.
 FoFCou: FMM=F IPFlag=           0 FMFlag=      100000 FMFlg1=           0
         NFxFlg=           0 DoJE=F BraDBF=F KetDBF=F FulRan=T
         wScrn=  0.000000 ICntrl=         0 IOpCl=  0 I1Cent=           0 NGrid=           0
         NMat0=    1 NMatS0=      1 NMatT0=    0 NMatD0=    1 NMtDS0=    0 NMtDT0=    0
 Symmetry not used in FoFCou.
 E= -1396.67565156513    
 DIIS: error= 2.32D-02 at cycle   1 NSaved=   1.
 NSaved= 1 IEnMin= 1 EnMin= -1396.67565156513     IErMin= 1 ErrMin= 2.32D-02
 ErrMax= 2.32D-02  0.00D+00 EMaxC= 1.00D-01 BMatC= 8.02D-01 BMatP= 8.02D-01
 IDIUse=3 WtCom= 7.68D-01 WtEn= 2.32D-01
 Coeff-Com:  0.100D+01
 Coeff-En:   0.100D+01
 Coeff:      0.100D+01
 Gap=     0.254 Goal=   None    Shift=    0.000
 GapD=    0.254 DampG=1.000 DampE=0.500 DampFc=0.5000 IDamp=-1.
 Damping current iteration by 5.00D-01
 RMSDP=2.57D-02 MaxDP=3.04D+00              OVMax= 3.25D-01

 Cycle   2  Pass 1  IDiag  1:
 RMSU=  1.28D-02    CP:  9.90D-01
 E= -1396.84554048282     Delta-E=       -0.169888917686 Rises=F Damp=T
 DIIS: error= 1.44D-02 at cycle   2 NSaved=   2.
 NSaved= 2 IEnMin= 2 EnMin= -1396.84554048282     IErMin= 2 ErrMin= 1.44D-02
 ErrMax= 1.44D-02  0.00D+00 EMaxC= 1.00D-01 BMatC= 1.45D-01 BMatP= 8.02D-01
 IDIUse=3 WtCom= 8.56D-01 WtEn= 1.44D-01
 Coeff-Com:  0.121D+00 0.879D+00
 Coeff-En:   0.309D+00 0.691D+00
 Coeff:      0.148D+00 0.852D+00
 Gap=     0.251 Goal=   None    Shift=    0.000
 RMSDP=1.86D-02 MaxDP=3.38D+00 DE=-1.70D-01 OVMax= 3.61D-01

 Cycle   3  Pass 1  IDiag  1:
 RMSU=  1.09D-02    CP:  7.82D-01  6.08D-01
 E= -1397.12480143523     Delta-E=       -0.279260952414 Rises=F Damp=F
 DIIS: error= 1.34D-02 at cycle   3 NSaved=   3.
 NSaved= 3 IEnMin= 3 EnMin= -1397.12480143523     IErMin= 3 ErrMin= 1.34D-02
 ErrMax= 1.34D-02  0.00D+00 EMaxC= 1.00D-01 BMatC= 1.28D-01 BMatP= 1.45D-01
 IDIUse=3 WtCom= 8.66D-01 WtEn= 1.34D-01
 Coeff-Com: -0.609D-01 0.504D+00 0.557D+00
 Coeff-En:   0.000D+00 0.000D+00 0.100D+01
 Coeff:     -0.528D-01 0.437D+00 0.616D+00
 Gap=     0.215 Goal=   None    Shift=    0.000
 RMSDP=6.60D-03 MaxDP=1.06D+00 DE=-2.79D-01 OVMax= 1.24D-01

 Cycle   4  Pass 1  IDiag  1:
 RMSU=  3.95D-03    CP:  7.60D-01  9.20D-01  7.17D-01
 E= -1397.20843130977     Delta-E=       -0.083629874541 Rises=F Damp=F
 DIIS: error= 7.51D-03 at cycle   4 NSaved=   4.
 NSaved= 4 IEnMin= 4 EnMin= -1397.20843130977     IErMin= 4 ErrMin= 7.51D-03
 ErrMax= 7.51D-03  0.00D+00 EMaxC= 1.00D-01 BMatC= 4.57D-02 BMatP= 1.28D-01
 IDIUse=3 WtCom= 9.25D-01 WtEn= 7.51D-02
 Coeff-Com: -0.315D-01 0.133D+00 0.400D+00 0.498D+00
 Coeff-En:   0.000D+00 0.000D+00 0.289D+00 0.711D+00
 Coeff:     -0.292D-01 0.123D+00 0.391D+00 0.514D+00
 Gap=     0.202 Goal=   None    Shift=    0.000
 RMSDP=3.09D-03 MaxDP=5.11D-01 DE=-8.36D-02 OVMax= 4.68D-02

 Cycle   5  Pass 1  IDiag  1:
 RMSU=  1.33D-03    CP:  7.35D-01  7.94D-01  7.84D-01  6.61D-01
 E= -1397.24763243751     Delta-E=       -0.039201127744 Rises=F Damp=F
 DIIS: error= 9.17D-04 at cycle   5 NSaved=   5.
 NSaved= 5 IEnMin= 5 EnMin= -1397.24763243751     IErMin= 5 ErrMin= 9.17D-04
 ErrMax= 9.17D-04  0.00D+00 EMaxC= 1.00D-01 BMatC= 1.87D-03 BMatP= 4.57D-02
 IDIUse=3 WtCom= 9.91D-01 WtEn= 9.17D-03
 Coeff-Com: -0.107D-01 0.330D-01 0.170D+00 0.278D+00 0.529D+00
 Coeff-En:   0.000D+00 0.000D+00 0.000D+00 0.000D+00 0.100D+01
 Coeff:     -0.106D-01 0.327D-01 0.169D+00 0.275D+00 0.534D+00
 Gap=     0.205 Goal=   None    Shift=    0.000
 RMSDP=5.74D-04 MaxDP=8.95D-02 DE=-3.92D-02 OVMax= 1.06D-02

 Cycle   6  Pass 1  IDiag  1:
 RMSU=  4.18D-04    CP:  7.36D-01  7.95D-01  8.06D-01  6.88D-01  7.86D-01
 E= -1397.24908668809     Delta-E=       -0.001454250574 Rises=F Damp=F
 DIIS: error= 4.04D-04 at cycle   6 NSaved=   6.
 NSaved= 6 IEnMin= 6 EnMin= -1397.24908668809     IErMin= 6 ErrMin= 4.04D-04
 ErrMax= 4.04D-04  0.00D+00 EMaxC= 1.00D-01 BMatC= 1.68D-04 BMatP= 1.87D-03
 IDIUse=3 WtCom= 9.96D-01 WtEn= 4.04D-03
 Coeff-Com: -0.118D-02-0.343D-03 0.339D-01 0.719D-01 0.269D+00 0.626D+00
 Coeff-En:   0.000D+00 0.000D+00 0.000D+00 0.000D+00 0.189D-01 0.981D+00
 Coeff:     -0.117D-02-0.341D-03 0.338D-01 0.716D-01 0.268D+00 0.628D+00
 Gap=     0.205 Goal=   None    Shift=    0.000
 RMSDP=1.81D-04 MaxDP=1.63D-02 DE=-1.45D-03 OVMax= 3.99D-03

 Cycle   7  Pass 1  IDiag  1:
 RMSU=  1.47D-04    CP:  7.36D-01  7.94D-01  8.04D-01  6.88D-01  8.45D-01
                    CP:  8.90D-01
 E= -1397.24921775985     Delta-E=       -0.000131071763 Rises=F Damp=F
 DIIS: error= 1.66D-04 at cycle   7 NSaved=   7.
 NSaved= 7 IEnMin= 7 EnMin= -1397.24921775985     IErMin= 7 ErrMin= 1.66D-04
 ErrMax= 1.66D-04  0.00D+00 EMaxC= 1.00D-01 BMatC= 3.68D-05 BMatP= 1.68D-04
 IDIUse=3 WtCom= 9.98D-01 WtEn= 1.66D-03
 Coeff-Com:  0.658D-03-0.422D-02-0.267D-02 0.421D-02 0.880D-01 0.379D+00
 Coeff-Com:  0.535D+00
 Coeff-En:   0.000D+00 0.000D+00 0.000D+00 0.000D+00 0.000D+00 0.124D+00
 Coeff-En:   0.876D+00
 Coeff:      0.657D-03-0.421D-02-0.267D-02 0.420D-02 0.879D-01 0.379D+00
 Coeff:      0.536D+00
 Gap=     0.205 Goal=   None    Shift=    0.000
 RMSDP=6.82D-05 MaxDP=7.14D-03 DE=-1.31D-04 OVMax= 1.37D-03

 Cycle   8  Pass 1  IDiag  1:
 RMSU=  5.38D-05    CP:  7.36D-01  7.94D-01  8.06D-01  6.84D-01  8.45D-01
                    CP:  9.15D-01  8.58D-01
 E= -1397.24924894834     Delta-E=       -0.000031188492 Rises=F Damp=F
 DIIS: error= 5.19D-05 at cycle   8 NSaved=   8.
 NSaved= 8 IEnMin= 8 EnMin= -1397.24924894834     IErMin= 8 ErrMin= 5.19D-05
 ErrMax= 5.19D-05  0.00D+00 EMaxC= 1.00D-01 BMatC= 3.88D-06 BMatP= 3.68D-05
 IDIUse=1 WtCom= 1.00D+00 WtEn= 0.00D+00
 Coeff-Com:  0.553D-03-0.241D-02-0.602D-02-0.738D-02 0.142D-01 0.126D+00
 Coeff-Com:  0.297D+00 0.577D+00
 Coeff:      0.553D-03-0.241D-02-0.602D-02-0.738D-02 0.142D-01 0.126D+00
 Coeff:      0.297D+00 0.577D+00
 Gap=     0.205 Goal=   None    Shift=    0.000
 RMSDP=3.07D-05 MaxDP=5.04D-03 DE=-3.12D-05 OVMax= 5.11D-04

 Cycle   9  Pass 1  IDiag  1:
 RMSU=  2.03D-05    CP:  7.36D-01  7.93D-01  8.06D-01  6.84D-01  8.46D-01
                    CP:  9.32D-01  8.84D-01  1.06D+00
 E= -1397.24925229036     Delta-E=       -0.000003342015 Rises=F Damp=F
 DIIS: error= 2.15D-05 at cycle   9 NSaved=   9.
 NSaved= 9 IEnMin= 9 EnMin= -1397.24925229036     IErMin= 9 ErrMin= 2.15D-05
 ErrMax= 2.15D-05  0.00D+00 EMaxC= 1.00D-01 BMatC= 5.17D-07 BMatP= 3.88D-06
 IDIUse=1 WtCom= 1.00D+00 WtEn= 0.00D+00
 Coeff-Com:  0.231D-03-0.793D-03-0.296D-02-0.476D-02-0.457D-02 0.132D-01
 Coeff-Com:  0.872D-01 0.310D+00 0.602D+00
 Coeff:      0.231D-03-0.793D-03-0.296D-02-0.476D-02-0.457D-02 0.132D-01
 Coeff:      0.872D-01 0.310D+00 0.602D+00
 Gap=     0.205 Goal=   None    Shift=    0.000
 RMSDP=1.50D-05 MaxDP=1.64D-03 DE=-3.34D-06 OVMax= 3.10D-04

 Cycle  10  Pass 1  IDiag  1:
 RMSU=  7.24D-06    CP:  7.36D-01  7.93D-01  8.05D-01  6.84D-01  8.50D-01
                    CP:  9.31D-01  9.12D-01  1.07D+00  1.03D+00
 E= -1397.24925281642     Delta-E=       -0.000000526060 Rises=F Damp=F
 DIIS: error= 5.67D-06 at cycle  10 NSaved=  10.
 NSaved=10 IEnMin=10 EnMin= -1397.24925281642     IErMin=10 ErrMin= 5.67D-06
 ErrMax= 5.67D-06  0.00D+00 EMaxC= 1.00D-01 BMatC= 6.84D-08 BMatP= 5.17D-07
 IDIUse=1 WtCom= 1.00D+00 WtEn= 0.00D+00
 Coeff-Com:  0.314D-04-0.935D-05-0.472D-03-0.118D-02-0.470D-02-0.157D-01
 Coeff-Com: -0.602D-02 0.539D-01 0.300D+00 0.674D+00
 Coeff:      0.314D-04-0.935D-05-0.472D-03-0.118D-02-0.470D-02-0.157D-01
 Coeff:     -0.602D-02 0.539D-01 0.300D+00 0.674D+00
 Gap=     0.205 Goal=   None    Shift=    0.000
 RMSDP=6.05D-06 MaxDP=8.10D-04 DE=-5.26D-07 OVMax= 1.00D-04

 Cycle  11  Pass 1  IDiag  1:
 RMSU=  3.88D-06    CP:  7.36D-01  7.93D-01  8.05D-01  6.84D-01  8.49D-01
                    CP:  9.36D-01  9.23D-01  1.08D+00  1.15D+00  1.16D+00
 E= -1397.24925289938     Delta-E=       -0.000000082964 Rises=F Damp=F
 DIIS: error= 2.20D-06 at cycle  11 NSaved=  11.
 NSaved=11 IEnMin=11 EnMin= -1397.24925289938     IErMin=11 ErrMin= 2.20D-06
 ErrMax= 2.20D-06  0.00D+00 EMaxC= 1.00D-01 BMatC= 8.47D-09 BMatP= 6.84D-08
 IDIUse=1 WtCom= 1.00D+00 WtEn= 0.00D+00
 Coeff-Com: -0.216D-04 0.119D-03 0.254D-03 0.213D-03-0.151D-02-0.940D-02
 Coeff-Com: -0.160D-01-0.243D-01 0.392D-01 0.308D+00 0.704D+00
 Coeff:     -0.216D-04 0.119D-03 0.254D-03 0.213D-03-0.151D-02-0.940D-02
 Coeff:     -0.160D-01-0.243D-01 0.392D-01 0.308D+00 0.704D+00
 Gap=     0.205 Goal=   None    Shift=    0.000
 RMSDP=2.79D-06 MaxDP=4.35D-04 DE=-8.30D-08 OVMax= 4.29D-05

 Cycle  12  Pass 1  IDiag  1:
 RMSU=  1.03D-06    CP:  7.36D-01  7.93D-01  8.05D-01  6.84D-01  8.49D-01
                    CP:  9.33D-01  9.26D-01  1.10D+00  1.22D+00  1.29D+00
                    CP:  1.05D+00
 E= -1397.24925290956     Delta-E=       -0.000000010182 Rises=F Damp=F
 DIIS: error= 1.39D-06 at cycle  12 NSaved=  12.
 NSaved=12 IEnMin=12 EnMin= -1397.24925290956     IErMin=12 ErrMin= 1.39D-06
 ErrMax= 1.39D-06  0.00D+00 EMaxC= 1.00D-01 BMatC= 1.44D-09 BMatP= 8.47D-09
 IDIUse=1 WtCom= 1.00D+00 WtEn= 0.00D+00
 Coeff-Com: -0.146D-04 0.622D-04 0.177D-03 0.235D-03-0.290D-03-0.312D-02
 Coeff-Com: -0.732D-02-0.174D-01-0.110D-01 0.925D-01 0.369D+00 0.577D+00
 Coeff:     -0.146D-04 0.622D-04 0.177D-03 0.235D-03-0.290D-03-0.312D-02
 Coeff:     -0.732D-02-0.174D-01-0.110D-01 0.925D-01 0.369D+00 0.577D+00
 Gap=     0.205 Goal=   None    Shift=    0.000
 RMSDP=7.65D-07 MaxDP=1.07D-04 DE=-1.02D-08 OVMax= 1.55D-05

 Cycle  13  Pass 1  IDiag  1:
 RMSU=  3.88D-07    CP:  7.36D-01  7.93D-01  8.05D-01  6.84D-01  8.49D-01
                    CP:  9.33D-01  9.24D-01  1.10D+00  1.22D+00  1.30D+00
                    CP:  1.06D+00  9.13D-01
 E= -1397.24925291105     Delta-E=       -0.000000001488 Rises=F Damp=F
 DIIS: error= 3.08D-07 at cycle  13 NSaved=  13.
 NSaved=13 IEnMin=13 EnMin= -1397.24925291105     IErMin=13 ErrMin= 3.08D-07
 ErrMax= 3.08D-07  0.00D+00 EMaxC= 1.00D-01 BMatC= 1.98D-10 BMatP= 1.44D-09
 IDIUse=1 WtCom= 1.00D+00 WtEn= 0.00D+00
 Coeff-Com: -0.412D-05 0.125D-04 0.470D-04 0.841D-04 0.113D-03 0.396D-04
 Coeff-Com: -0.864D-03-0.446D-02-0.133D-01-0.894D-02 0.582D-01 0.292D+00
 Coeff-Com:  0.677D+00
 Coeff:     -0.412D-05 0.125D-04 0.470D-04 0.841D-04 0.113D-03 0.396D-04
 Coeff:     -0.864D-03-0.446D-02-0.133D-01-0.894D-02 0.582D-01 0.292D+00
 Coeff:      0.677D+00
 Gap=     0.205 Goal=   None    Shift=    0.000
 RMSDP=3.32D-07 MaxDP=4.06D-05 DE=-1.49D-09 OVMax= 6.01D-06

 Cycle  14  Pass 1  IDiag  1:
 RMSU=  1.91D-07    CP:  7.36D-01  7.93D-01  8.05D-01  6.84D-01  8.49D-01
                    CP:  9.33D-01  9.24D-01  1.10D+00  1.22D+00  1.32D+00
                    CP:  1.09D+00  1.00D+00  8.41D-01
 E= -1397.24925291133     Delta-E=       -0.000000000275 Rises=F Damp=F
 DIIS: error= 1.80D-07 at cycle  14 NSaved=  14.
 NSaved=14 IEnMin=14 EnMin= -1397.24925291133     IErMin=14 ErrMin= 1.80D-07
 ErrMax= 1.80D-07  0.00D+00 EMaxC= 1.00D-01 BMatC= 3.08D-11 BMatP= 1.98D-10
 IDIUse=1 WtCom= 1.00D+00 WtEn= 0.00D+00
 Coeff-Com:  0.306D-06-0.382D-05-0.409D-05 0.654D-05 0.113D-03 0.539D-03
 Coeff-Com:  0.802D-03 0.660D-03-0.505D-02-0.196D-01-0.292D-01 0.634D-01
 Coeff-Com:  0.349D+00 0.639D+00
 Coeff:      0.306D-06-0.382D-05-0.409D-05 0.654D-05 0.113D-03 0.539D-03
 Coeff:      0.802D-03 0.660D-03-0.505D-02-0.196D-01-0.292D-01 0.634D-01
 Coeff:      0.349D+00 0.639D+00
 Gap=     0.205 Goal=   None    Shift=    0.000
 RMSDP=9.65D-08 MaxDP=1.34D-05 DE=-2.75D-10 OVMax= 2.56D-06

 Cycle  15  Pass 1  IDiag  1:
 RMSU=  5.64D-08    CP:  7.36D-01  7.93D-01  8.05D-01  6.84D-01  8.49D-01
                    CP:  9.33D-01  9.24D-01  1.10D+00  1.22D+00  1.32D+00
                    CP:  1.09D+00  1.02D+00  9.29D-01  9.97D-01
 E= -1397.24925291125     Delta-E=        0.000000000076 Rises=F Damp=F
 DIIS: error= 5.54D-08 at cycle  15 NSaved=  15.
 NSaved=15 IEnMin=14 EnMin= -1397.24925291133     IErMin=15 ErrMin= 5.54D-08
 ErrMax= 5.54D-08  0.00D+00 EMaxC= 1.00D-01 BMatC= 3.24D-12 BMatP= 3.08D-11
 IDIUse=1 WtCom= 1.00D+00 WtEn= 0.00D+00
 Coeff-Com:  0.757D-06-0.341D-05-0.814D-05-0.814D-05 0.342D-04 0.228D-03
 Coeff-Com:  0.462D-03 0.899D-03-0.414D-03-0.747D-02-0.203D-01-0.957D-02
 Coeff-Com:  0.630D-01 0.280D+00 0.693D+00
 Coeff:      0.757D-06-0.341D-05-0.814D-05-0.814D-05 0.342D-04 0.228D-03
 Coeff:      0.462D-03 0.899D-03-0.414D-03-0.747D-02-0.203D-01-0.957D-02
 Coeff:      0.630D-01 0.280D+00 0.693D+00
 Gap=     0.205 Goal=   None    Shift=    0.000
 RMSDP=3.57D-08 MaxDP=3.71D-06 DE= 7.64D-11 OVMax= 9.08D-07

 Cycle  16  Pass 1  IDiag  1:
 RMSU=  2.26D-08    CP:  7.36D-01  7.93D-01  8.05D-01  6.84D-01  8.49D-01
                    CP:  9.33D-01  9.24D-01  1.10D+00  1.22D+00  1.33D+00
                    CP:  1.09D+00  1.03D+00  9.36D-01  1.09D+00  1.17D+00
 E= -1397.24925291138     Delta-E=       -0.000000000127 Rises=F Damp=F
 DIIS: error= 2.41D-08 at cycle  16 NSaved=  16.
 NSaved=16 IEnMin=16 EnMin= -1397.24925291138     IErMin=16 ErrMin= 2.41D-08
 ErrMax= 2.41D-08  0.00D+00 EMaxC= 1.00D-01 BMatC= 5.33D-13 BMatP= 3.24D-12
 IDIUse=1 WtCom= 1.00D+00 WtEn= 0.00D+00
 Coeff-Com:  0.313D-06-0.943D-06-0.286D-05-0.436D-05-0.294D-05 0.129D-04
 Coeff-Com:  0.664D-04 0.281D-03 0.620D-03-0.319D-03-0.433D-02-0.142D-01
 Coeff-Com: -0.268D-01 0.295D-01 0.320D+00 0.695D+00
 Coeff:      0.313D-06-0.943D-06-0.286D-05-0.436D-05-0.294D-05 0.129D-04
 Coeff:      0.664D-04 0.281D-03 0.620D-03-0.319D-03-0.433D-02-0.142D-01
 Coeff:     -0.268D-01 0.295D-01 0.320D+00 0.695D+00
 Gap=     0.205 Goal=   None    Shift=    0.000
 RMSDP=1.63D-08 MaxDP=2.60D-06 DE=-1.27D-10 OVMax= 4.37D-07

 Cycle  17  Pass 1  IDiag  1:
 RMSU=  1.02D-08    CP:  7.36D-01  7.93D-01  8.05D-01  6.84D-01  8.49D-01
                    CP:  9.33D-01  9.24D-01  1.10D+00  1.22D+00  1.33D+00
                    CP:  1.09D+00  1.03D+00  9.32D-01  1.13D+00  1.27D+00
                    CP:  1.04D+00
 E= -1397.24925291102     Delta-E=        0.000000000362 Rises=F Damp=F
 DIIS: error= 7.85D-09 at cycle  17 NSaved=  17.
 NSaved=17 IEnMin=16 EnMin= -1397.24925291138     IErMin=17 ErrMin= 7.85D-09
 ErrMax= 7.85D-09  0.00D+00 EMaxC= 1.00D-01 BMatC= 1.00D-13 BMatP= 5.33D-13
 IDIUse=1 WtCom= 1.00D+00 WtEn= 0.00D+00
 Coeff-Com:  0.590D-07-0.892D-08-0.401D-06-0.127D-05-0.745D-05-0.279D-04
 Coeff-Com: -0.367D-04 0.181D-04 0.430D-03 0.101D-02 0.101D-02-0.609D-02
 Coeff-Com: -0.247D-01-0.313D-01 0.507D-01 0.345D+00 0.664D+00
 Coeff:      0.590D-07-0.892D-08-0.401D-06-0.127D-05-0.745D-05-0.279D-04
 Coeff:     -0.367D-04 0.181D-04 0.430D-03 0.101D-02 0.101D-02-0.609D-02
 Coeff:     -0.247D-01-0.313D-01 0.507D-01 0.345D+00 0.664D+00
 Gap=     0.205 Goal=   None    Shift=    0.000
 RMSDP=9.56D-09 MaxDP=1.93D-06 DE= 3.62D-10 OVMax= 1.71D-07

 Cycle  18  Pass 1  IDiag  1:
 RMSU=  4.68D-09    CP:  7.36D-01  7.93D-01  8.05D-01  6.84D-01  8.49D-01
                    CP:  9.33D-01  9.24D-01  1.10D+00  1.22D+00  1.33D+00
                    CP:  1.09D+00  1.03D+00  9.33D-01  1.15D+00  1.34D+00
                    CP:  1.09D+00  1.12D+00
 E= -1397.24925291125     Delta-E=       -0.000000000233 Rises=F Damp=F
 DIIS: error= 4.09D-09 at cycle  18 NSaved=  18.
 NSaved=18 IEnMin=16 EnMin= -1397.24925291138     IErMin=18 ErrMin= 4.09D-09
 ErrMax= 4.09D-09  0.00D+00 EMaxC= 1.00D-01 BMatC= 1.23D-14 BMatP= 1.00D-13
 IDIUse=1 WtCom= 1.00D+00 WtEn= 0.00D+00
[...]
 11,-0.00001633,0.00002820,0.00003544,-0.00008988,0.00029145,-0.0000011
 1,0.00003895,-0.00033256,0.00036856,-0.00015641,0.00023392,-0.00030555
 ,0.00104425,-0.00003059,0.00000739,-0.00017935,-0.00024551,0.00012700,
 0.00016384,0.00001487,-0.00001933,-0.00012154,-0.00002095,0.00002536,-
 0.00015661,-0.00018023,0.00014660,0.00009577,0.00017908,-0.00007691,-0
 .00010292,-0.00012132,0.00007420,-0.00008743,-0.00011630,0.00007243,-0
 .00000117,0.00019983,-0.00009768,0.00014710,-0.00024425,0.00009264,-0.
 00041954,0.00053077,-0.00037617,-0.00053913,-0.00191877,-0.00039331,-0
 .00104061,0.00150595,0.00409389,0.00119429,-0.00014246,-0.00077559,0.0
 0540397,-0.00983739,0.00721634,-0.00238827,0.00314475,0.00025489,0.068
 89959,-0.22105355,0.10085831,-0.00191337,0.00447699,-0.00335897,0.0009
 8544,0.00127435,0.00050113,-0.00590865,-0.02512906,0.00505277,-0.00000
 415,0.00000220,0.00000773,-0.00000575,0.00000452,-0.00000557,-0.000000
 59,0.00000302,0.00000094,-0.00000216,0.00000036,0.00000165,0.00001210,
 0.00000400,-0.00002056,-0.00002476,0.00000658,-0.00000728,-0.00000287,
 0.00001552,-0.00001066,0.00001691,0.00000804,-0.00000712,0.00001220,-0
 .00001124,0.00000134,0.00000226,-0.00046049,-0.00033531,-0.00003468,0.
 00003033,-0.00002740,0.00000801,-0.00033197,0.00011161,0.00089372,-0.0
 0073658,-0.00075796,0.00139721,-0.00043397,-0.00129019,-0.06648124,0.2
 4861558,0.00000100,0.00000068,0.00000022,-0.00000210,-0.00000667,-0.00
 001903,0.00001087,0.00000705,-0.00001144,-0.00001082,-0.00000763,-0.00
 001703,-0.00003812,0.00004077,0.00001380,-0.00001852,0.00000686,-0.000
 00298,-0.00001347,-0.00001493,0.00000002,-0.00001948,0.00002206,0.0000
 3418,0.00007664,0.00005015,-0.00004690,0.00002432,-0.00003711,0.000072
 47,-0.00007481,-0.00007330,-0.00001970,0.00000329,-0.00001294,0.000028
 46,-0.00001157,-0.00000333,0.00000081,0.00000933,-0.00000245,0.0000012
 9,-0.00002875,0.00001598,0.00000190,-0.00000425,-0.00002260,0.00000343
 ,0.00000818,0.00001298,0.00000311,-0.00000754,-0.00000840,0.00001576,-
 0.00001165,0.00000543,-0.00001686,0.00000065,-0.00003251,0.00007550,0.
 00003894,-0.00000548,-0.00001435,-0.00022178,-0.00015151,-0.00019082,0
 .00007740,-0.00084583,-0.00044981,0.00164252,-0.00107553,-0.00178181,0
 .00619450,-0.01294540,0.00428384,-0.00073147,-0.00133425,0.00226830,-0
 .03950645,0.10195383,-0.10783954,-0.01295172,0.02796302,-0.01907801,0.
 00168324,-0.00047321,0.00297773,0.00498429,-0.00154717,0.00607138,0.00
 000618,-0.00000003,-0.00000883,0.00000652,-0.00000183,0.00000509,-0.00
 000211,-0.00000492,-0.00000040,-0.00000016,0.00000183,0.00000060,-0.00
 000795,-0.00000796,0.00000218,0.00001607,0.00000062,0.00001184,-0.0000
 0065,-0.00000446,-0.00000351,-0.00000434,-0.00000217,-0.00000312,0.000
 00165,-0.00000287,-0.00000311,-0.00000720,0.00017232,-0.00006357,-0.00
 000426,-0.00006806,0.00005065,-0.00032516,-0.00061506,0.00021078,0.000
 19475,0.00006649,-0.00017179,0.00051969,0.00076883,0.00008670,0.038870
 44,-0.10988198,0.11704597,0.00000147,-0.00000153,0.00000654,-0.0000023
 5,-0.00002615,0.00000478,-0.00001246,0.00001626,-0.00000668,0.00001601
 ,0.00002329,-0.00004824,-0.00002937,0.00002941,0.00003384,-0.00000289,
 0.00000947,0.00002475,0.00001261,-0.00002897,0.00000134,0.00002123,-0.
 00008393,0.00001031,0.00000273,0.00007113,-0.00007139,0.00001666,-0.00
 007793,0.00005013,-0.00008483,0.00011925,-0.00004492,-0.00001163,-0.00
 002549,0.00000811,-0.00001102,-0.00000055,0.00000057,0.00001036,-0.000
 00711,0.00000479,-0.00001533,-0.00001213,0.00003138,-0.00002230,-0.000
 01530,-0.00000507,0.00001489,0.00001360,0.00001261,0.00001061,-0.00000
 230,0.00000587,0.00001494,-0.00002267,0.00000961,0.00003788,-0.0000000
 5,0.00004912,-0.00004717,-0.00002429,-0.00007388,-0.00003373,-0.000060
 73,0.00007358,0.00004626,0.00010579,-0.00027361,0.00004177,0.00014159,
 -0.00015441,0.00026765,-0.00020551,0.00120967,0.00001092,0.00003862,-0
 .00023186,-0.00201775,0.00658481,-0.00301955,-0.09493311,0.08607389,-0
 .04732834,0.00702095,-0.02919388,0.01274535,0.00026107,-0.00044363,0.0
 0086432,0.00000694,0.00000131,-0.00000601,0.00000320,-0.00000035,0.000
 00101,-0.00000574,-0.00000149,-0.00000049,-0.00000120,0.00000562,0.000
 00250,-0.00001788,-0.00001429,0.00000576,0.00001170,0.00000109,0.00000
 513,-0.00000165,-0.00000605,-0.00000541,-0.00000771,-0.00000004,-0.000
 00858,0.00000124,0.00000007,-0.00000391,0.00003605,0.00002413,0.000006
 57,0.00019004,-0.00002309,0.00019358,0.00000787,-0.00012825,0.00011536
 ,0.00006512,-0.00036752,-0.00048828,-0.00016278,-0.00004835,0.00006257
 ,0.00029335,-0.00107528,-0.00125686,0.09713745,-0.00000144,-0.00000215
 ,-0.00000347,0.00000693,0.00000921,-0.00000383,0.00000188,-0.00001152,
 0.00000495,-0.00000733,-0.00001336,0.00002791,0.00002653,-0.00001204,-
 0.00003285,0.00000829,-0.00000410,-0.00002209,-0.00000243,0.00001465,0
 .00000502,-0.00001641,0.00005872,-0.00000468,-0.00000953,-0.00004352,0
 .00006352,-0.00001564,0.00006345,-0.00003217,0.00007429,-0.00008564,0.
 00003194,0.00000128,0.00000532,-0.00002052,0.00001921,0.00001010,0.000
 00014,-0.00001810,-0.00000027,-0.00000258,0.00000356,-0.00000305,-0.00
 000645,0.00005184,0.00002525,-0.00000351,-0.00003308,-0.00002630,-0.00
 000010,-0.00004854,-0.00001263,0.00000065,0.00000708,0.00004896,-0.000
 00933,-0.00004863,-0.00002364,-0.00003281,0.00008135,0.00001213,0.0000
 6684,0.00002383,0.00009580,-0.00001076,0.00030772,-0.00047038,-0.00005
 612,-0.00018778,-0.00025573,-0.00010338,0.00037441,0.00015850,0.000068
 18,-0.00005995,0.00004524,0.00006404,-0.00320344,0.00481820,-0.0029626
 4,0.08447586,-0.20333574,0.08572270,-0.00548178,-0.03036610,0.01000531
 ,0.00115884,0.00232332,0.00094153,-0.00000596,0.00000017,0.00000836,-0
 .00000454,0.00000164,-0.00000436,0.00000242,0.00000351,0.00000125,0.00
 000055,-0.00000411,0.00000063,0.00001066,0.00000945,-0.00000430,-0.000
 00923,-0.00000074,-0.00000603,0.00000301,0.00000765,0.00000394,0.00000
 916,0.00000027,0.00000619,-0.00000201,0.00000576,0.00000252,-0.0001225
 4,0.00005454,0.00008471,0.00004733,-0.00026483,-0.00065467,0.00004071,
 0.00011121,-0.00005393,-0.00000197,-0.00016515,0.00055770,-0.00004327,
 -0.00000678,-0.00004873,-0.00070711,0.00005153,-0.00187504,-0.08273459
 ,0.23296814,0.00000005,0.00000250,-0.00000021,-0.00000339,-0.00000583,
 0.00001110,-0.00001351,0.00001214,0.00000251,0.00001820,-0.00001119,-0
 .00001136,-0.00002559,0.00001415,0.00003157,0.00001031,0.00000126,-0.0
 0000164,0.00000599,-0.00000702,-0.00001290,0.00002131,-0.00008415,-0.0
 0001186,0.,0.00009057,-0.00006004,0.00002615,-0.00006873,0.00006769,-0
 .00013770,0.00008934,-0.00001884,0.00005162,0.00001134,-0.00001624,-0.
 00003436,-0.00000898,0.00000903,0.00002996,0.00000445,-0.00000723,0.00
 000737,0.00003203,-0.00000840,-0.00009398,-0.00004853,0.00003589,0.000
 06554,0.00004788,-0.00003597,0.00009354,0.00004493,-0.00004622,-0.0000
 1024,-0.00012648,0.00006083,0.00007393,0.00013431,0.00000991,-0.000140
 51,-0.00005117,-0.00001189,0.00012573,-0.00014546,-0.00000162,-0.00066
 010,0.00018249,-0.00008493,-0.00017793,0.00021604,-0.00075816,-0.00115
 893,0.00108978,0.00073765,0.00066360,-0.00051792,0.00072729,-0.0139035
 3,0.02769450,-0.01734091,-0.04464972,0.08662828,-0.10017535,0.00174252
 ,-0.00092210,0.00416476,0.00207144,-0.00135653,0.00254699,-0.00000167,
 0.00000066,-0.00000082,0.00000138,-0.00000145,0.00000174,0.00000074,-0
 .00000037,0.00000030,-0.00000030,-0.00000086,0.00000048,-0.00000317,-0
 .00000163,0.00000822,0.00000788,-0.00000226,0.00000167,-0.00000045,-0.
 00000650,0.00000550,-0.00000811,0.00000309,0.00000387,-0.00000249,-0.0
 0000098,0.00000292,0.00013518,0.00006445,0.00001885,0.00012648,-0.0009
 0812,0.00010176,0.00012378,-0.00013568,0.00027894,0.00065157,0.0000334
 9,0.00015157,-0.00038269,0.00011988,0.00019079,-0.00101316,-0.00165589
 ,-0.00537723,0.04887355,-0.09816799,0.10676633,0.00000797,0.00000459,0
 .00000637,-0.00000690,-0.00000320,-0.00001707,-0.00001005,0.00001433,-
 0.00000026,0.00008139,0.00000042,0.00004061,-0.00001254,0.00003070,0.0
 0001107,0.00000336,-0.00000442,0.00000210,-0.00001429,0.00000309,0.000
 00764,0.00000187,0.00000098,0.00000179,0.00004362,-0.00000275,-0.00002
 793,0.00002067,-0.00001468,0.00004122,-0.00008787,0.00003290,0.0000294
 8,0.00003066,0.00002826,-0.00002686,-0.00001453,0.00000088,0.00000953,
 0.00001508,-0.00000316,-0.00001075,0.00001590,0.00002005,-0.00000750,-
 0.00004712,0.00000096,0.00001001,0.00002646,0.00000975,-0.00002362,0.0
 0006089,0.00001190,-0.00002322,-0.00002537,-0.00004947,0.00003067,0.00
 003274,0.00004632,-0.00000512,-0.00004487,-0.00002087,0.00001255,0.000
 05029,0.00002069,-0.00001309,0.00009979,0.00012985,0.00003037,0.000181
 15,-0.00002647,-0.00014401,-0.00081308,-0.00078334,-0.00155718,0.00047
 686,-0.00010879,-0.00036505,0.00553341,-0.00210375,-0.00363373,-0.2292
 3843,0.06563064,0.09986349,-0.02403847,-0.00897501,0.00851335,0.001404
 20,0.00083027,0.00037981,0.00000499,-0.00000624,-0.00000479,0.00000050
 ,0.00000091,-0.00000358,-0.00000107,-0.00000376,0.00000091,0.00001589,
 0.00000224,-0.00000261,0.00001850,0.00002464,0.00000394,0.00000117,0.0
 0000256,0.00000212,-0.00000065,0.00000242,0.00000514,-0.00000277,0.000
 00666,0.00000726,0.00000140,-0.00000352,0.00000211,0.00004744,-0.00000
 125,0.00002649,-0.00000534,-0.00014351,0.00010628,0.00003704,-0.000099
 22,0.00008393,0.00021076,-0.00002303,-0.00020134,-0.00008598,-0.000030
 80,-0.00004419,0.00049156,0.00009189,0.00059404,-0.00922099,0.00577431
 ,0.00678441,0.25466279,-0.00000227,0.00000291,0.00000656,-0.00002336,-
 0.00001092,0.00003223,-0.00002125,0.00007362,0.00002155,0.00006584,0.0
 0001090,0.00001045,0.00004231,-0.00003852,-0.00005093,-0.00002491,0.00
 004037,-0.00000168,0.00002564,-0.00002861,-0.00001504,0.00001501,-0.00
 003160,-0.00001431,-0.00006905,0.00003675,-0.00000123,-0.00001452,0.00
 001338,-0.00003211,0.00008207,-0.00006652,-0.00000489,-0.00004298,-0.0
 0003279,0.00003450,0.00001652,-0.00000294,-0.00000881,-0.00001843,0.00
 000565,0.00001032,-0.00001625,-0.00001931,0.00002048,0.00007454,-0.000
 00191,-0.00001654,-0.00004301,-0.00002027,0.00002751,-0.00009214,-0.00
 002671,0.00003587,0.00001898,0.00009553,-0.00003902,-0.00005847,-0.000
 10434,0.00001335,0.00010555,0.00000733,-0.00003274,-0.00012172,0.00001
 239,0.00001509,0.00030325,-0.00011262,-0.00006374,0.00010161,-0.000060
 22,0.00028236,-0.00099070,0.00070843,-0.00103689,0.00037449,-0.0002715
 1,-0.00093813,0.00609283,-0.00146600,-0.00161459,0.06828603,-0.0731748
 9,-0.03748937,-0.03383764,0.00114920,0.01456904,-0.00007409,0.00007507
 ,0.00068499,0.00000310,0.00000138,-0.00000673,0.00000398,-0.00000401,0
 .00000503,0.00000016,-0.00000210,-0.00000315,-0.00001197,0.00000055,0.
 00000189,-0.00003607,-0.00005254,0.00000172,0.00000685,-0.00000204,0.0
 0000499,0.00000062,-0.00000002,-0.00000528,0.00000442,-0.00000876,-0.0
 0000642,-0.00000054,0.00000259,-0.00000369,-0.00004249,0.00008234,0.00
 006397,-0.00004177,0.00019721,-0.00015753,-0.00006742,0.00002110,-0.00
 007054,-0.00032782,0.00002220,0.00013144,-0.00007858,-0.00010568,0.000
 07644,-0.00047362,0.00055016,-0.00001363,0.02045995,-0.00598147,-0.011
 63250,-0.06050073,0.07714600,-0.00000104,0.00000712,-0.00000375,-0.000
 01891,0.00001251,0.00003047,-0.00000829,0.00001579,0.00003055,0.000009
 19,-0.00001035,0.00003937,0.00002900,-0.00006167,-0.00003479,-0.000011
 54,0.00001903,-0.00001726,0.00001574,0.00003096,-0.00001781,0.00001856
 ,0.00002339,-0.00002928,-0.00005364,-0.00000708,0.00005034,-0.00002876
 ,0.00003995,-0.00007670,0.00008875,-0.00015768,0.00002464,-0.00001759,
 -0.00001065,0.00000571,0.00000153,-0.00000996,0.00000171,-0.00000747,0
 .00001444,0.00000082,-0.00002092,0.00001033,-0.00000290,0.00002574,-0.
 00003216,0.00000920,-0.00000757,0.00000583,0.00000066,-0.00005139,-0.0
 0001212,0.00001465,-0.00000555,0.00003859,-0.00002094,-0.00002671,-0.0
 0006088,0.00003778,0.00004853,-0.00000901,-0.00001483,-0.00015536,-0.0
 0000111,0.00001809,0.00039852,-0.00032899,0.00023991,0.00026197,0.0002
 2475,-0.00006414,-0.00443699,0.00083187,-0.00304386,0.00145126,-0.0006
 3753,-0.00241124,0.02907606,-0.01234268,-0.01749623,0.09986681,-0.0339
 7086,-0.10694869,-0.00129539,0.00168035,0.00441497,-0.00062393,0.00212
 134,0.00229419,-0.00000885,-0.00000364,0.00000638,-0.00000305,-0.00000
 281,0.00000079,0.00000943,0.00000228,-0.00000167,-0.00000085,-0.000003
 74,-0.00000394,-0.00000866,-0.00001017,-0.00000063,-0.00001370,-0.0000
 0473,-0.00000821,0.00000092,-0.00000225,0.00000008,0.00000397,-0.00000
 570,0.00000177,0.00000035,0.00000081,-0.00000181,-0.00000654,0.0001831
 6,0.00011971,-0.00002022,-0.00023130,0.00002638,-0.00005186,-0.0001701
 6,0.00005015,-0.00004319,0.00030766,0.00008771,-0.00010416,-0.00025781
 ,0.00018377,0.00004591,0.00059291,0.00144804,-0.01208577,0.00526895,0.
 00763637,-0.11149835,0.03624743,0.11287191,-0.00001026,-0.00000571,-0.
 00001261,0.00000032,0.00001821,0.00002154,0.00000209,0.00002750,0.0000
 2641,0.00002482,-0.00000475,0.00001507,0.00005287,-0.00004175,-0.00005
 433,0.00000282,0.00000257,-0.00001173,0.00001643,0.00000405,-0.0000148
 1,0.00000716,0.00003518,-0.00001278,-0.00004361,-0.00001292,0.00006595
 ,-0.00002816,0.00005669,-0.00004251,0.00004098,-0.00006565,0.00002315,
 0.00000928,-0.00000251,-0.00000419,-0.00001000,-0.00000657,-0.00000475
 ,0.00000172,0.00001822,0.00000369,-0.00000527,0.00003227,-0.00000730,0
 .00000773,-0.00006400,0.00002603,0.00001053,0.00002925,-0.00001111,-0.
 00004131,0.00002905,-0.00000889,0.00004211,-0.00002792,0.00000742,-0.0
 0005456,0.00005814,-0.00002240,0.00002411,-0.00006659,0.00000772,0.000
 05343,0.00000980,-0.00002023,-0.00039859,-0.00003011,-0.00018074,0.000
 03734,0.00004514,0.00021629,0.00039761,0.00028503,0.00004158,-0.000186
 42,0.00006505,0.00015411,-0.00349524,-0.00317102,0.00213703,-0.0078015
 5,-0.00772432,-0.02713991,-0.04287589,-0.04765899,-0.08993397,-0.00018
 508,-0.00111872,-0.00129351,-0.00001399,0.00000546,0.00001286,-0.00000
 484,-0.00000244,0.00000280,0.00000791,0.00000810,-0.00000078,-0.000018
 38,-0.00000883,0.00000153,-0.00001586,-0.00002341,-0.00000509,-0.00001
 227,-0.00000507,-0.00000701,0.00000317,-0.00000797,0.00000261,0.000001
 78,-0.00001036,-0.00000013,-0.00000645,0.00000930,0.00000053,0.0000169
 1,-0.00005708,-0.00004225,0.00003253,0.00000597,0.00000901,0.00003068,
 0.00005544,0.00001650,0.00035211,-0.00018564,-0.00003137,0.00006345,-0
 .00003014,-0.00013958,-0.00004069,0.00017490,0.00029665,0.00108092,0.0
 0025427,0.00070930,0.00009200,0.00094808,-0.00073600,0.05283562,0.0000
 0338,0.00000772,0.00000389,-0.00002402,0.00000935,0.00000600,0.0000027
 1,0.00000787,0.00000312,0.00001301,-0.00000017,-0.00001213,-0.00004330
 ,0.00001595,0.00003727,-0.00001667,0.00000975,0.00001387,0.00000053,0.
 00000106,-0.00000687,0.00003181,-0.00004209,0.00001007,0.00004539,0.00
 003127,-0.00006280,0.00003630,-0.00008200,0.00003991,-0.00016640,0.000
 07341,-0.00002672,0.00004467,0.00002329,-0.00000997,-0.00005195,-0.000
 01208,0.00000872,0.00004282,0.00000636,-0.00000565,0.00001029,0.000043
 35,-0.00002120,-0.00010247,-0.00007127,0.00003552,0.00007509,0.0000624
 9,-0.00002784,0.00009170,0.00003932,-0.00002193,-0.00002724,-0.0001014
 3,0.00004082,0.00006345,0.00008375,0.00001206,-0.00006432,-0.00002703,
 0.00000065,0.00011662,0.00002876,-0.00002514,-0.00038490,0.00018530,-0
 .00009896,-0.00001783,0.00001559,-0.00004659,-0.00033506,-0.00009104,-
 0.00007312,0.00010186,0.00004854,0.00028576,-0.00235157,-0.00388399,0.
 00255903,-0.00786036,-0.01001529,-0.03028448,-0.04791777,-0.05574254,-
 0.10456465,-0.00073288,-0.00063134,-0.00129154,0.00000557,-0.00000394,
 -0.00001477,0.00000605,-0.00000390,0.00000845,0.00000269,-0.00000686,-
 0.00000298,0.00000242,0.00000502,-0.00000513,-0.00001126,-0.00000900,0
 .00000490,0.00000566,-0.00000160,0.00000778,-0.00000350,-0.00001296,0.
 00000072,-0.00001395,-0.00000110,-0.00000107,0.00000031,-0.00000793,-0
 .00000204,0.00004951,-0.00005343,-0.00005452,0.00004262,-0.00010292,-0
 .00000907,0.00000412,-0.00001980,0.00003372,0.00012303,-0.00009834,-0.
 00011616,0.00000519,0.00001306,-0.00015242,-0.00005409,0.00027940,-0.0
 0001068,0.00091217,0.00018651,-0.00064920,0.00018577,0.00137121,0.0006
 6559,0.05815482,0.06847373,0.00000351,0.00000493,0.00000167,-0.0000127
 8,0.00000922,-0.00000167,-0.00000070,-0.00000703,0.00001076,0.00000607
 ,-0.00000283,0.00000956,-0.00001943,0.00000489,0.00000662,-0.00000858,
 -0.00000084,-0.00000838,-0.00000149,0.00001099,0.00000013,0.00000092,0
 .00001414,0.00000100,0.00002598,-0.00000853,-0.00001154,0.00001236,-0.
 00000860,-0.00000144,-0.00011895,-0.00003695,0.00000277,0.00004097,0.0
 0002775,-0.00001948,-0.00003934,-0.00000676,0.00001208,0.00002685,0.00
 000980,-0.00001156,0.00001161,0.00004979,-0.00002395,-0.00004393,-0.00
 006721,0.00004226,0.00004186,0.00004076,-0.00003657,0.00002884,0.00003
 300,-0.00002810,-0.00000465,-0.00006260,0.00002879,-0.00000657,0.00006
 921,-0.00001912,0.00001192,-0.00008515,0.00002914,0.00006708,0.0000626
 9,-0.00003518,-0.00010593,-0.00031227,-0.00004356,-0.00010666,0.000074
 99,-0.00006495,0.00017322,-0.00001617,0.00008937,-0.00006923,0.0000251
 0,0.00022655,-0.00057121,-0.00020454,0.00024217,0.00560270,0.00649409,
 0.00217811,-0.12331355,-0.14231920,-0.48856523,0.00066953,0.00035962,0
 .00028179,-0.00000165,-0.00000604,-0.00000190,-0.00000115,-0.00000172,
 -0.00000037,0.00000540,-0.00000058,-0.00000075,0.00000642,-0.00000015,
 -0.00000475,-0.00000597,0.00000048,0.00000465,-0.00000427,-0.00000176,
 -0.00000087,0.00000137,-0.00000489,0.00000799,-0.00000357,-0.00000168,
 0.00000720,-0.00000353,0.00000193,0.00000312,-0.00000757,0.00001983,0.
 00002045,0.00001530,-0.00005830,0.00002821,-0.00000625,-0.00000956,0.0
 0002843,-0.00014036,-0.00000813,-0.00012250,0.00001715,0.00003742,0.00
 003333,0.00018398,-0.00008656,0.00040578,0.00070053,0.00118538,0.00040
 730,0.00100356,0.00096227,0.00055257,0.11594017,0.13381977,0.48434004\
 \-0.00000140,0.00000186,-0.00000234,-0.00000014,-0.00000727,0.00001029
 ,-0.00000460,0.00001044,-0.00000712,0.00000387,-0.00000205,-0.00000690
 ,0.00000772,-0.00001039,0.00000035,-0.00000409,0.00001146,-0.00000546,
 0.00000225,-0.00000239,-0.00000354,0.00000712,-0.00001681,0.00000746,-
 0.00000439,0.00002167,-0.00002990,-0.00000761,-0.00001084,0.00003897,-
 0.00001329,0.00000760,-0.00000627,0.00001109,-0.00001584,0.00000215,-0
 .00000563,0.00000455,-0.00000520,0.00000280,0.00000196,0.00000128,-0.0
 0000456,0.00000440,0.00000481,0.00001304,-0.00000456,-0.00000230,-0.00
 000573,-0.00000011,0.00000140,-0.00000998,-0.00000247,0.00000361,0.000
 00567,0.00001322,-0.00000959,0.00000496,-0.00001210,0.00000618,-0.0000
 0890,0.00001563,-0.00000988,0.00001130,-0.00000559,0.00001139,0.000002
 96,-0.00001230,-0.00000514,-0.00000794,0.00000516,-0.00000020,0.000004
 58,0.00000171,0.00000435,-0.00000352,0.00000324,-0.00000264,-0.0000005
 4,0.00000021,0.00000327,-0.00000968,-0.00001150,0.00000143,0.00001007,
 0.00000494,-0.00000061,0.00000221,0.00000699,-0.00000547,-0.00000119,-
 0.00000043,-0.00000015,0.00000096,-0.00000141,-0.00000071,-0.00000040,
 0.00000006,0.00000003,0.00000096,-0.00000314,0.00000050,-0.00000129,0.
 00000100,0.00000138,0.00000044,-0.00000102,-0.00000120,0.00000187,0.00
 000058,0.00000141,0.00000060,0.00000003,-0.00000087,0.00000050,-0.0000
 0004,0.00000260,0.00000025,0.00000127,0.00000081,0.00000197,-0.0000006
 5,-0.00000019,-0.00000019,-0.00000080,0.00000241,-0.00000084,-0.000000
 11,-0.00000062,0.00000093,-0.00000198,0.00000031,-0.00000068,-0.000000
 48,0.00000100,0.00000050,0.00000186,-0.00000091,0.00000225,0.00000227,
 0.00000059,-0.00000426,0.00000216,-0.00000077\\\@
 The archive entry for this job was punched.


 "MATHEMATICS IS THE ART OF GIVING THE SAME NAME
 TO DIFFERENT THINGS."
                    - H. POINCARE
 Job cpu time:       1 days 16 hours 50 minutes 51.4 seconds.
 Elapsed time:       0 days  1 hours 35 minutes 20.8 seconds.
 File lengths (MBytes):  RWF=   2454 Int=      0 D2E=      0 Chk=     50 Scr=      1
 Normal termination of Gaussian 16 at Tue Dec  5 19:07:58 2023.
