 Entering Gaussian System, Link 0=g16
 Input=/home/exlonk/in_progress/3341.inp
 Output=/home/exlonk/in_progress/3341.log
 Initial command:
 /opt/gaussian/g16-c01/g16/l1.exe "/lustre/tmp/slurm/2182851/Gau-195672.inp" -scrdir="/lustre/tmp/slurm/2182851/"
 Default CPUs for threads: 0-4,7-9,13-15,19-20,24-28,31-33,37-39,43-44
 Default is to use a total of  26 processors:
                               26 via shared-memory
                                1 via Linda
 Entering Link 1 = /opt/gaussian/g16-c01/g16/l1.exe PID=    195673.
  
 Copyright (c) 1988-2019, Gaussian, Inc.  All Rights Reserved.
  
 This is part of the Gaussian(R) 16 program.  It is based on
 the Gaussian(R) 09 system (copyright 2009, Gaussian, Inc.),
 the Gaussian(R) 03 system (copyright 2003, Gaussian, Inc.),
 the Gaussian(R) 98 system (copyright 1998, Gaussian, Inc.),
 the Gaussian(R) 94 system (copyright 1995, Gaussian, Inc.),
 the Gaussian 92(TM) system (copyright 1992, Gaussian, Inc.),
 the Gaussian 90(TM) system (copyright 1990, Gaussian, Inc.),
 the Gaussian 88(TM) system (copyright 1988, Gaussian, Inc.),
 the Gaussian 86(TM) system (copyright 1986, Carnegie Mellon
 University), and the Gaussian 82(TM) system (copyright 1983,
 Carnegie Mellon University). Gaussian is a federally registered
 trademark of Gaussian, Inc.
  
 This software contains proprietary and confidential information,
 including trade secrets, belonging to Gaussian, Inc.
  
 This software is provided under written license and may be
 used, copied, transmitted, or stored only in accord with that
 written license.
  
 The following legend is applicable only to US Government
 contracts under FAR:
  
                    RESTRICTED RIGHTS LEGEND
  
 Use, reproduction and disclosure by the US Government is
 subject to restrictions as set forth in subparagraphs (a)
 and (c) of the Commercial Computer Software - Restricted
 Rights clause in FAR 52.227-19.
  
 Gaussian, Inc.
 340 Quinnipiac St., Bldg. 40, Wallingford CT 06492
  
  
 ---------------------------------------------------------------
 Warning -- This program may not be used in any manner that
 competes with the business of Gaussian, Inc. or will provide
 assistance to any competitor of Gaussian, Inc.  The licensee
 of this program is prohibited from giving any competitor of
 Gaussian, Inc. access to this program.  By using this program,
 the user acknowledges that Gaussian, Inc. is engaged in the
 business of creating and licensing software in the field of
 computational chemistry and represents and warrants to the
 licensee that it is not a competitor of Gaussian, Inc. and that
 it will not use this program in any manner prohibited above.
 ---------------------------------------------------------------
  

 Cite this work as:
 Gaussian 16, Revision C.01,
 M. J. Frisch, G. W. Trucks, H. B. Schlegel, G. E. Scuseria, 
 M. A. Robb, J. R. Cheeseman, G. Scalmani, V. Barone, 
 G. A. Petersson, H. Nakatsuji, X. Li, M. Caricato, A. V. Marenich, 
 J. Bloino, B. G. Janesko, R. Gomperts, B. Mennucci, H. P. Hratchian, 
 J. V. Ortiz, A. F. Izmaylov, J. L. Sonnenberg, D. Williams-Young, 
 F. Ding, F. Lipparini, F. Egidi, J. Goings, B. Peng, A. Petrone, 
 T. Henderson, D. Ranasinghe, V. G. Zakrzewski, J. Gao, N. Rega, 
 G. Zheng, W. Liang, M. Hada, M. Ehara, K. Toyota, R. Fukuda, 
 J. Hasegawa, M. Ishida, T. Nakajima, Y. Honda, O. Kitao, H. Nakai, 
 T. Vreven, K. Throssell, J. A. Montgomery, Jr., J. E. Peralta, 
 F. Ogliaro, M. J. Bearpark, J. J. Heyd, E. N. Brothers, K. N. Kudin, 
 V. N. Staroverov, T. A. Keith, R. Kobayashi, J. Normand, 
 K. Raghavachari, A. P. Rendell, J. C. Burant, S. S. Iyengar, 
 J. Tomasi, M. Cossi, J. M. Millam, M. Klene, C. Adamo, R. Cammi, 
 J. W. Ochterski, R. L. Martin, K. Morokuma, O. Farkas, 
 J. B. Foresman, and D. J. Fox, Gaussian, Inc., Wallingford CT, 2019.
 
 ******************************************
 Gaussian 16:  EM64L-G16RevC.01  3-Jul-2019
                 5-Dec-2023 
 ******************************************
 %nproc=26
 Will use up to   26 processors via shared memory.
 %mem=16GB
 %chk=/home/exlonk/in_progress/3341.chk
 ------------------------------
 #p MN15/6-311++G(d,p) opt freq
 ------------------------------
 1/18=20,19=15,26=3,38=1/1,3;
 2/9=110,12=2,17=6,18=5,40=1/2;
 3/5=4,6=6,7=1111,11=2,25=1,30=1,71=1,74=-73/1,2,3;
 4//1;
 5/5=2,38=5/2;
 6/7=2,8=2,9=2,10=2,28=1/1;
 7//1,2,3,16;
 1/18=20,19=15,26=3/3(2);
 2/9=110/2;
 99//99;
 2/9=110/2;
 3/5=4,6=6,7=1111,11=2,25=1,30=1,71=1,74=-73/1,2,3;
 4/5=5,16=3,69=1/1;
 5/5=2,38=5/2;
 7//1,2,3,16;
 1/18=20,19=15,26=3/3(-5);
 2/9=110/2;
 6/7=2,8=2,9=2,10=2,19=2,28=1/1;
 99/9=1/99;
 Leave Link    1 at Tue Dec  5 12:56:40 2023, MaxMem=  2147483648 cpu:              11.7 elap:               0.5
 (Enter /opt/gaussian/g16-c01/g16/l101.exe)
 ---------------
 name file: 3341
 ---------------
 Symbolic Z-matrix:
 Charge =  0 Multiplicity = 1
 C                     7.02533   0.92471  -0.6532 
 N                     6.20163  -0.15064  -0.16331 
 C                     6.8321   -1.33666   0.35623 
 C                     4.77782   0.00253  -0.21325 
 C                     4.18989   1.13849  -0.71551 
 C                     2.82894   1.31695  -0.77735 
 C                     1.96554   0.31876  -0.31743 
 C                     0.5356    0.54299  -0.39911 
 C                    -0.32902  -0.36414   0.02015 
 C                    -1.76735  -0.13369  -0.06428 
 C                    -2.59993  -1.15586   0.40686 
 C                    -2.1095   -2.33135   0.92881 
 C                    -2.99273  -3.29753   1.37551 
 C                    -4.35256  -3.13457   1.3209 
 C                    -4.8311   -1.9521    0.79565 
 C                    -3.97789  -0.96389   0.33946 
 C                    -4.4712    0.21662  -0.18466 
 C                    -5.82886   0.41757  -0.25631 
 C                    -6.33451   1.60996  -0.78554 
 C                    -5.46094   2.54341  -1.21734 
 C                    -4.08581   2.39239  -1.16838 
 C                    -3.60125   1.20883  -0.64283 
 N                    -2.26342   0.99533  -0.56522 
 B                    -1.33186   2.10461  -1.07759 
 F                    -1.54086   2.39137  -2.48943 
 F                    -1.57586   3.28395  -0.23519 
 O                     0.07283   1.72071  -0.9222 
 C                     2.55948  -0.80879   0.18098 
 C                     3.94159  -0.99027   0.24388 
 H                     6.99113   0.94088  -1.76236 
 H                     6.71987   1.91248  -0.24305 
 H                     8.06909   0.75971  -0.32564 
 H                     6.81156  -1.26299   1.4599 
 H                     6.28999  -2.26623   0.08788 
 H                     7.86681  -1.4038   -0.03082 
 H                     4.86114   1.91952  -1.07561 
 H                     2.41945   2.24024  -1.18651 
 H                     0.02532  -1.29773   0.43507 
 H                    -1.06815  -2.56563   1.01987 
 H                    -2.6155   -4.23447   1.7917 
 H                    -5.04451  -3.91526   1.68155 
 H                    -5.90454  -1.87712   0.77668 
 H                    -6.52551  -0.32174   0.08573 
 H                    -7.42319   1.74546  -0.83146 
 H                    -5.84186   3.47816  -1.63242 
 H                    -3.41781   3.15614  -1.52092 
 H                     1.94879  -1.61831   0.55277 
 H                     4.36185  -1.89899   0.64635 
 
 ITRead=  0  0  0  0  0  0  0  0  0  0  0  0  0  0  0  0  0  0  0  0
 ITRead=  0  0  0  0  0  0  0  0  0  0  0  0  0  0  0  0  0  0  0  0
 ITRead=  0  0  0  0  0  0  0  0
 MicOpt= -1 -1 -1 -1 -1 -1 -1 -1 -1 -1 -1 -1 -1 -1 -1 -1 -1 -1 -1 -1
 MicOpt= -1 -1 -1 -1 -1 -1 -1 -1 -1 -1 -1 -1 -1 -1 -1 -1 -1 -1 -1 -1
 MicOpt= -1 -1 -1 -1 -1 -1 -1 -1
 NAtoms=     48 NQM=       48 NQMF=       0 NMMI=      0 NMMIF=      0
                NMic=       0 NMicF=      0.
                    Isotopes and Nuclear Properties:
 (Nuclear quadrupole moments (NQMom) in fm**2, nuclear magnetic moments (NMagM)
  in nuclear magnetons)

  Atom         1           2           3           4           5           6           7           8           9          10
 IAtWgt=          12          14          12          12          12          12          12          12          12          12
 AtmWgt=  12.0000000  14.0030740  12.0000000  12.0000000  12.0000000  12.0000000  12.0000000  12.0000000  12.0000000  12.0000000
 NucSpn=           0           2           0           0           0           0           0           0           0           0
 AtZEff=  -0.0000000  -0.0000000  -0.0000000  -0.0000000  -0.0000000  -0.0000000  -0.0000000  -0.0000000  -0.0000000  -0.0000000
 NQMom=    0.0000000   2.0440000   0.0000000   0.0000000   0.0000000   0.0000000   0.0000000   0.0000000   0.0000000   0.0000000
 NMagM=    0.0000000   0.4037610   0.0000000   0.0000000   0.0000000   0.0000000   0.0000000   0.0000000   0.0000000   0.0000000
 AtZNuc=   6.0000000   7.0000000   6.0000000   6.0000000   6.0000000   6.0000000   6.0000000   6.0000000   6.0000000   6.0000000

  Atom        11          12          13          14          15          16          17          18          19          20
 IAtWgt=          12          12          12          12          12          12          12          12          12          12
 AtmWgt=  12.0000000  12.0000000  12.0000000  12.0000000  12.0000000  12.0000000  12.0000000  12.0000000  12.0000000  12.0000000
 NucSpn=           0           0           0           0           0           0           0           0           0           0
 AtZEff=  -0.0000000  -0.0000000  -0.0000000  -0.0000000  -0.0000000  -0.0000000  -0.0000000  -0.0000000  -0.0000000  -0.0000000
 NQMom=    0.0000000   0.0000000   0.0000000   0.0000000   0.0000000   0.0000000   0.0000000   0.0000000   0.0000000   0.0000000
 NMagM=    0.0000000   0.0000000   0.0000000   0.0000000   0.0000000   0.0000000   0.0000000   0.0000000   0.0000000   0.0000000
 AtZNuc=   6.0000000   6.0000000   6.0000000   6.0000000   6.0000000   6.0000000   6.0000000   6.0000000   6.0000000   6.0000000

  Atom        21          22          23          24          25          26          27          28          29          30
 IAtWgt=          12          12          14          11          19          19          16          12          12           1
 AtmWgt=  12.0000000  12.0000000  14.0030740  11.0093053  18.9984033  18.9984033  15.9949146  12.0000000  12.0000000   1.0078250
 NucSpn=           0           0           2           3           1           1           0           0           0           1
 AtZEff=  -0.0000000  -0.0000000  -0.0000000  -0.0000000  -0.0000000  -0.0000000  -0.0000000  -0.0000000  -0.0000000  -0.0000000
 NQMom=    0.0000000   0.0000000   2.0440000   4.0590000   0.0000000   0.0000000   0.0000000   0.0000000   0.0000000   0.0000000
 NMagM=    0.0000000   0.0000000   0.4037610   2.6886370   2.6288670   2.6288670   0.0000000   0.0000000   0.0000000   2.7928460
 AtZNuc=   6.0000000   6.0000000   7.0000000   5.0000000   9.0000000   9.0000000   8.0000000   6.0000000   6.0000000   1.0000000

  Atom        31          32          33          34          35          36          37          38          39          40
 IAtWgt=           1           1           1           1           1           1           1           1           1           1
 AtmWgt=   1.0078250   1.0078250   1.0078250   1.0078250   1.0078250   1.0078250   1.0078250   1.0078250   1.0078250   1.0078250
 NucSpn=           1           1           1           1           1           1           1           1           1           1
 AtZEff=  -0.0000000  -0.0000000  -0.0000000  -0.0000000  -0.0000000  -0.0000000  -0.0000000  -0.0000000  -0.0000000  -0.0000000
 NQMom=    0.0000000   0.0000000   0.0000000   0.0000000   0.0000000   0.0000000   0.0000000   0.0000000   0.0000000   0.0000000
 NMagM=    2.7928460   2.7928460   2.7928460   2.7928460   2.7928460   2.7928460   2.7928460   2.7928460   2.7928460   2.7928460
 AtZNuc=   1.0000000   1.0000000   1.0000000   1.0000000   1.0000000   1.0000000   1.0000000   1.0000000   1.0000000   1.0000000

  Atom        41          42          43          44          45          46          47          48
 IAtWgt=           1           1           1           1           1           1           1           1
 AtmWgt=   1.0078250   1.0078250   1.0078250   1.0078250   1.0078250   1.0078250   1.0078250   1.0078250
 NucSpn=           1           1           1           1           1           1           1           1
 AtZEff=  -0.0000000  -0.0000000  -0.0000000  -0.0000000  -0.0000000  -0.0000000  -0.0000000  -0.0000000
 NQMom=    0.0000000   0.0000000   0.0000000   0.0000000   0.0000000   0.0000000   0.0000000   0.0000000
 NMagM=    2.7928460   2.7928460   2.7928460   2.7928460   2.7928460   2.7928460   2.7928460   2.7928460
 AtZNuc=   1.0000000   1.0000000   1.0000000   1.0000000   1.0000000   1.0000000   1.0000000   1.0000000
 Leave Link  101 at Tue Dec  5 12:56:40 2023, MaxMem=  2147483648 cpu:               6.8 elap:               0.3
 (Enter /opt/gaussian/g16-c01/g16/l103.exe)

 GradGradGradGradGradGradGradGradGradGradGradGradGradGradGradGradGradGrad
 Berny optimization.
 Initialization pass.
                           ----------------------------
                           !    Initial Parameters    !
                           ! (Angstroms and Degrees)  !
 --------------------------                            --------------------------
 ! Name  Definition              Value          Derivative Info.                !
 --------------------------------------------------------------------------------
 ! R1    R(1,2)                  1.4404         estimate D2E/DX2                !
 ! R2    R(1,30)                 1.1098         estimate D2E/DX2                !
 ! R3    R(1,31)                 1.1123         estimate D2E/DX2                !
 ! R4    R(1,32)                 1.1063         estimate D2E/DX2                !
 ! R5    R(2,3)                  1.4402         estimate D2E/DX2                !
 ! R6    R(2,4)                  1.4329         estimate D2E/DX2                !
 ! R7    R(3,33)                 1.1063         estimate D2E/DX2                !
 ! R8    R(3,34)                 1.1091         estimate D2E/DX2                !
 ! R9    R(3,35)                 1.1068         estimate D2E/DX2                !
 ! R10   R(4,5)                  1.3742         estimate D2E/DX2                !
 ! R11   R(4,29)                 1.3762         estimate D2E/DX2                !
 ! R12   R(5,6)                  1.374          estimate D2E/DX2                !
 ! R13   R(5,36)                 1.091          estimate D2E/DX2                !
 ! R14   R(6,7)                  1.3976         estimate D2E/DX2                !
 ! R15   R(6,37)                 1.0898         estimate D2E/DX2                !
 ! R16   R(7,8)                  1.4497         estimate D2E/DX2                !
 ! R17   R(7,28)                 1.3684         estimate D2E/DX2                !
 ! R18   R(8,9)                  1.3214         estimate D2E/DX2                !
 ! R19   R(8,27)                 1.3692         estimate D2E/DX2                !
 ! R20   R(9,10)                 1.4591         estimate D2E/DX2                !
 ! R21   R(9,38)                 1.0813         estimate D2E/DX2                !
 ! R22   R(10,11)                1.4            estimate D2E/DX2                !
 ! R23   R(10,23)                1.3311         estimate D2E/DX2                !
 ! R24   R(11,12)                1.3765         estimate D2E/DX2                !
 ! R25   R(11,16)                1.3929         estimate D2E/DX2                !
 ! R26   R(12,13)                1.3832         estimate D2E/DX2                !
 ! R27   R(12,39)                1.0713         estimate D2E/DX2                !
 ! R28   R(13,14)                1.3707         estimate D2E/DX2                !
 ! R29   R(13,40)                1.0924         estimate D2E/DX2                !
 ! R30   R(14,15)                1.3795         estimate D2E/DX2                !
 ! R31   R(14,41)                1.1038         estimate D2E/DX2                !
 ! R32   R(15,16)                1.383          estimate D2E/DX2                !
 ! R33   R(15,42)                1.0762         estimate D2E/DX2                !
 ! R34   R(16,17)                1.3826         estimate D2E/DX2                !
 ! R35   R(17,18)                1.3743         estimate D2E/DX2                !
 ! R36   R(17,22)                1.3969         estimate D2E/DX2                !
 ! R37   R(18,19)                1.3991         estimate D2E/DX2                !
 ! R38   R(18,43)                1.0719         estimate D2E/DX2                !
 ! R39   R(19,20)                1.3494         estimate D2E/DX2                !
 ! R40   R(19,44)                1.098          estimate D2E/DX2                !
 ! R41   R(20,21)                1.3843         estimate D2E/DX2                !
 ! R42   R(20,45)                1.0914         estimate D2E/DX2                !
 ! R43   R(21,22)                1.3827         estimate D2E/DX2                !
 ! R44   R(21,46)                1.0742         estimate D2E/DX2                !
 ! R45   R(22,23)                1.357          estimate D2E/DX2                !
 ! R46   R(23,24)                1.5365         estimate D2E/DX2                !
 ! R47   R(24,25)                1.4557         estimate D2E/DX2                !
 ! R48   R(24,26)                1.4697         estimate D2E/DX2                !
 ! R49   R(24,27)                1.4645         estimate D2E/DX2                !
 ! R50   R(28,29)                1.3954         estimate D2E/DX2                !
 ! R51   R(28,47)                1.08           estimate D2E/DX2                !
 ! R52   R(29,48)                1.0791         estimate D2E/DX2                !
 ! A1    A(2,1,30)             109.4603         estimate D2E/DX2                !
 ! A2    A(2,1,31)             112.3651         estimate D2E/DX2                !
 ! A3    A(2,1,32)             109.1145         estimate D2E/DX2                !
 ! A4    A(30,1,31)            110.3118         estimate D2E/DX2                !
 ! A5    A(30,1,32)            109.0967         estimate D2E/DX2                !
 ! A6    A(31,1,32)            106.4012         estimate D2E/DX2                !
 ! A7    A(1,2,3)              119.1539         estimate D2E/DX2                !
 ! A8    A(1,2,4)              118.4609         estimate D2E/DX2                !
 ! A9    A(3,2,4)              122.3852         estimate D2E/DX2                !
 ! A10   A(2,3,33)             107.2733         estimate D2E/DX2                !
 ! A11   A(2,3,34)             112.8912         estimate D2E/DX2                !
 ! A12   A(2,3,35)             109.4556         estimate D2E/DX2                !
 ! A13   A(33,3,34)            106.7454         estimate D2E/DX2                !
 ! A14   A(33,3,35)            111.7324         estimate D2E/DX2                !
 ! A15   A(34,3,35)            108.7541         estimate D2E/DX2                !
 ! A16   A(2,4,5)              121.7515         estimate D2E/DX2                !
 ! A17   A(2,4,29)             121.004          estimate D2E/DX2                !
 ! A18   A(5,4,29)             117.2445         estimate D2E/DX2                !
 ! A19   A(4,5,6)              123.2026         estimate D2E/DX2                !
 ! A20   A(4,5,36)             116.6923         estimate D2E/DX2                !
 ! A21   A(6,5,36)             120.1051         estimate D2E/DX2                !
 ! A22   A(5,6,7)              120.2867         estimate D2E/DX2                !
 ! A23   A(5,6,37)             119.9432         estimate D2E/DX2                !
 ! A24   A(7,6,37)             119.7701         estimate D2E/DX2                !
 ! A25   A(6,7,8)              118.7072         estimate D2E/DX2                !
 ! A26   A(6,7,28)             116.1177         estimate D2E/DX2                !
 ! A27   A(8,7,28)             125.1751         estimate D2E/DX2                !
 ! A28   A(7,8,9)              121.4213         estimate D2E/DX2                !
 ! A29   A(7,8,27)             119.2043         estimate D2E/DX2                !
 ! A30   A(9,8,27)             119.3743         estimate D2E/DX2                !
 ! A31   A(8,9,10)             121.2118         estimate D2E/DX2                !
 ! A32   A(8,9,38)             119.9996         estimate D2E/DX2                !
 ! A33   A(10,9,38)            118.7886         estimate D2E/DX2                !
 ! A34   A(9,10,11)            116.8361         estimate D2E/DX2                !
 ! A35   A(9,10,23)            121.5417         estimate D2E/DX2                !
 ! A36   A(11,10,23)           121.6222         estimate D2E/DX2                !
 ! A37   A(10,11,12)           122.6315         estimate D2E/DX2                !
 ! A38   A(10,11,16)           118.126          estimate D2E/DX2                !
 ! A39   A(12,11,16)           119.2425         estimate D2E/DX2                !
 ! A40   A(11,12,13)           119.4381         estimate D2E/DX2                !
 ! A41   A(11,12,39)           124.4253         estimate D2E/DX2                !
 ! A42   A(13,12,39)           116.1366         estimate D2E/DX2                !
 ! A43   A(12,13,14)           122.5202         estimate D2E/DX2                !
 ! A44   A(12,13,40)           120.1093         estimate D2E/DX2                !
 ! A45   A(14,13,40)           117.3705         estimate D2E/DX2                !
 ! A46   A(13,14,15)           117.4663         estimate D2E/DX2                !
 ! A47   A(13,14,41)           121.6566         estimate D2E/DX2                !
 ! A48   A(15,14,41)           120.8771         estimate D2E/DX2                !
 ! A49   A(14,15,16)           121.605          estimate D2E/DX2                !
 ! A50   A(14,15,42)           114.3568         estimate D2E/DX2                !
 ! A51   A(16,15,42)           124.0381         estimate D2E/DX2                !
 ! A52   A(11,16,15)           119.7279         estimate D2E/DX2                !
 ! A53   A(11,16,17)           119.2735         estimate D2E/DX2                !
 ! A54   A(15,16,17)           120.9986         estimate D2E/DX2                !
 ! A55   A(16,17,18)           119.8069         estimate D2E/DX2                !
 ! A56   A(16,17,22)           120.5714         estimate D2E/DX2                !
 ! A57   A(18,17,22)           119.6217         estimate D2E/DX2                !
 ! A58   A(17,18,19)           120.0904         estimate D2E/DX2                !
 ! A59   A(17,18,43)           121.6394         estimate D2E/DX2                !
 ! A60   A(19,18,43)           118.2702         estimate D2E/DX2                !
 ! A61   A(18,19,20)           118.4638         estimate D2E/DX2                !
 ! A62   A(18,19,44)           118.6407         estimate D2E/DX2                !
 ! A63   A(20,19,44)           122.8955         estimate D2E/DX2                !
 ! A64   A(19,20,21)           123.8013         estimate D2E/DX2                !
 ! A65   A(19,20,45)           119.2229         estimate D2E/DX2                !
 ! A66   A(21,20,45)           116.9758         estimate D2E/DX2                !
 ! A67   A(20,21,22)           117.0629         estimate D2E/DX2                !
 ! A68   A(20,21,46)           121.911          estimate D2E/DX2                !
 ! A69   A(22,21,46)           121.0261         estimate D2E/DX2                !
 ! A70   A(17,22,21)           120.9599         estimate D2E/DX2                !
 ! A71   A(17,22,23)           118.9129         estimate D2E/DX2                !
 ! A72   A(21,22,23)           120.1273         estimate D2E/DX2                !
 ! A73   A(10,23,22)           121.494          estimate D2E/DX2                !
 ! A74   A(10,23,24)           120.7914         estimate D2E/DX2                !
 ! A75   A(22,23,24)           117.7146         estimate D2E/DX2                !
 ! A76   A(23,24,25)           112.2453         estimate D2E/DX2                !
 ! A77   A(23,24,26)           106.7102         estimate D2E/DX2                !
 ! A78   A(23,24,27)           110.9097         estimate D2E/DX2                !
 ! A79   A(25,24,26)           111.962          estimate D2E/DX2                !
 ! A80   A(25,24,27)           106.9929         estimate D2E/DX2                !
 ! A81   A(26,24,27)           107.9857         estimate D2E/DX2                !
 ! A82   A(8,27,24)            126.171          estimate D2E/DX2                !
 ! A83   A(7,28,29)            123.6064         estimate D2E/DX2                !
 ! A84   A(7,28,47)            119.8386         estimate D2E/DX2                !
 ! A85   A(29,28,47)           116.555          estimate D2E/DX2                !
 ! A86   A(4,29,28)            119.5422         estimate D2E/DX2                !
 ! A87   A(4,29,48)            119.6544         estimate D2E/DX2                !
 ! A88   A(28,29,48)           120.8034         estimate D2E/DX2                !
 ! D1    D(30,1,2,3)           105.7662         estimate D2E/DX2                !
 ! D2    D(30,1,2,4)           -74.1935         estimate D2E/DX2                !
 ! D3    D(31,1,2,3)          -131.3121         estimate D2E/DX2                !
 ! D4    D(31,1,2,4)            48.7282         estimate D2E/DX2                !
 ! D5    D(32,1,2,3)           -13.5538         estimate D2E/DX2                !
 ! D6    D(32,1,2,4)           166.4865         estimate D2E/DX2                !
 ! D7    D(1,2,3,33)           100.7498         estimate D2E/DX2                !
 ! D8    D(1,2,3,34)          -141.9394         estimate D2E/DX2                !
 ! D9    D(1,2,3,35)           -20.6554         estimate D2E/DX2                !
 ! D10   D(4,2,3,33)           -79.2922         estimate D2E/DX2                !
 ! D11   D(4,2,3,34)            38.0186         estimate D2E/DX2                !
 ! D12   D(4,2,3,35)           159.3027         estimate D2E/DX2                !
 ! D13   D(1,2,4,5)              0.1575         estimate D2E/DX2                !
 ! D14   D(1,2,4,29)          -179.8284         estimate D2E/DX2                !
 ! D15   D(3,2,4,5)           -179.8009         estimate D2E/DX2                !
 ! D16   D(3,2,4,29)             0.2133         estimate D2E/DX2                !
 ! D17   D(2,4,5,6)           -179.9867         estimate D2E/DX2                !
 ! D18   D(2,4,5,36)             0.029          estimate D2E/DX2                !
 ! D19   D(29,4,5,6)            -0.0004         estimate D2E/DX2                !
 ! D20   D(29,4,5,36)         -179.9846         estimate D2E/DX2                !
 ! D21   D(2,4,29,28)          179.9862         estimate D2E/DX2                !
 ! D22   D(2,4,29,48)           -0.0132         estimate D2E/DX2                !
 ! D23   D(5,4,29,28)           -0.0002         estimate D2E/DX2                !
 ! D24   D(5,4,29,48)         -179.9997         estimate D2E/DX2                !
 ! D25   D(4,5,6,7)              0.0006         estimate D2E/DX2                !
 ! D26   D(4,5,6,37)          -179.9996         estimate D2E/DX2                !
 ! D27   D(36,5,6,7)           179.9843         estimate D2E/DX2                !
 ! D28   D(36,5,6,37)           -0.0159         estimate D2E/DX2                !
 ! D29   D(5,6,7,8)           -179.9915         estimate D2E/DX2                !
 ! D30   D(5,6,7,28)            -0.0001         estimate D2E/DX2                !
 ! D31   D(37,6,7,8)             0.0087         estimate D2E/DX2                !
 ! D32   D(37,6,7,28)         -179.9999         estimate D2E/DX2                !
 ! D33   D(6,7,8,9)           -179.9895         estimate D2E/DX2                !
 ! D34   D(6,7,8,27)             0.0083         estimate D2E/DX2                !
 ! D35   D(28,7,8,9)             0.02           estimate D2E/DX2                !
 ! D36   D(28,7,8,27)         -179.9822         estimate D2E/DX2                !
 ! D37   D(6,7,28,29)           -0.0005         estimate D2E/DX2                !
 ! D38   D(6,7,28,47)          179.9998         estimate D2E/DX2                !
 ! D39   D(8,7,28,29)          179.9902         estimate D2E/DX2                !
 ! D40   D(8,7,28,47)           -0.0094         estimate D2E/DX2                !
 ! D41   D(7,8,9,10)          -179.997          estimate D2E/DX2                !
 ! D42   D(7,8,9,38)             0.0029         estimate D2E/DX2                !
 ! D43   D(27,8,9,10)            0.0052         estimate D2E/DX2                !
 ! D44   D(27,8,9,38)         -179.9949         estimate D2E/DX2                !
 ! D45   D(7,8,27,24)          179.9285         estimate D2E/DX2                !
 ! D46   D(9,8,27,24)           -0.0737         estimate D2E/DX2                !
 ! D47   D(8,9,10,11)         -179.9749         estimate D2E/DX2                !
 ! D48   D(8,9,10,23)            0.003          estimate D2E/DX2                !
 ! D49   D(38,9,10,11)           0.0252         estimate D2E/DX2                !
 ! D50   D(38,9,10,23)        -179.9969         estimate D2E/DX2                !
 ! D51   D(9,10,11,12)          -0.0207         estimate D2E/DX2                !
 ! D52   D(9,10,11,16)         179.9777         estimate D2E/DX2                !
 ! D53   D(23,10,11,12)       -179.9986         estimate D2E/DX2                !
 ! D54   D(23,10,11,16)         -0.0003         estimate D2E/DX2                !
 ! D55   D(9,10,23,22)        -179.9752         estimate D2E/DX2                !
 ! D56   D(9,10,23,24)           0.0503         estimate D2E/DX2                !
 ! D57   D(11,10,23,22)          0.0017         estimate D2E/DX2                !
 ! D58   D(11,10,23,24)       -179.9728         estimate D2E/DX2                !
 ! D59   D(10,11,12,13)        179.9981         estimate D2E/DX2                !
 ! D60   D(10,11,12,39)         -0.0012         estimate D2E/DX2                !
 ! D61   D(16,11,12,13)         -0.0002         estimate D2E/DX2                !
 ! D62   D(16,11,12,39)       -179.9996         estimate D2E/DX2                !
 ! D63   D(10,11,16,15)       -179.9984         estimate D2E/DX2                !
 ! D64   D(10,11,16,17)         -0.0007         estimate D2E/DX2                !
 ! D65   D(12,11,16,15)          0.0001         estimate D2E/DX2                !
 ! D66   D(12,11,16,17)        179.9977         estimate D2E/DX2                !
 ! D67   D(11,12,13,14)          0.0003         estimate D2E/DX2                !
 ! D68   D(11,12,13,40)        179.9987         estimate D2E/DX2                !
 ! D69   D(39,12,13,14)        179.9997         estimate D2E/DX2                !
 ! D70   D(39,12,13,40)         -0.0019         estimate D2E/DX2                !
 ! D71   D(12,13,14,15)         -0.0001         estimate D2E/DX2                !
 ! D72   D(12,13,14,41)       -179.9995         estimate D2E/DX2                !
 ! D73   D(40,13,14,15)       -179.9986         estimate D2E/DX2                !
 ! D74   D(40,13,14,41)          0.0021         estimate D2E/DX2                !
 ! D75   D(13,14,15,16)         -0.0001         estimate D2E/DX2                !
 ! D76   D(13,14,15,42)       -179.9999         estimate D2E/DX2                !
 ! D77   D(41,14,15,16)        179.9993         estimate D2E/DX2                !
 ! D78   D(41,14,15,42)         -0.0005         estimate D2E/DX2                !
 ! D79   D(14,15,16,11)          0.0001         estimate D2E/DX2                !
 ! D80   D(14,15,16,17)       -179.9975         estimate D2E/DX2                !
 ! D81   D(42,15,16,11)        179.9999         estimate D2E/DX2                !
 ! D82   D(42,15,16,17)          0.0023         estimate D2E/DX2                !
 ! D83   D(11,16,17,18)       -179.9973         estimate D2E/DX2                !
 ! D84   D(11,16,17,22)          0.0003         estimate D2E/DX2                !
 ! D85   D(15,16,17,18)          0.0003         estimate D2E/DX2                !
 ! D86   D(15,16,17,22)        179.9979         estimate D2E/DX2                !
 ! D87   D(16,17,18,19)        179.9974         estimate D2E/DX2                !
 ! D88   D(16,17,18,43)         -0.0032         estimate D2E/DX2                !
 ! D89   D(22,17,18,19)         -0.0002         estimate D2E/DX2                !
 ! D90   D(22,17,18,43)        179.9991         estimate D2E/DX2                !
 ! D91   D(16,17,22,21)       -179.9973         estimate D2E/DX2                !
 ! D92   D(16,17,22,23)          0.0011         estimate D2E/DX2                !
 ! D93   D(18,17,22,21)          0.0003         estimate D2E/DX2                !
 ! D94   D(18,17,22,23)        179.9987         estimate D2E/DX2                !
 ! D95   D(17,18,19,20)          0.0001         estimate D2E/DX2                !
 ! D96   D(17,18,19,44)       -179.9994         estimate D2E/DX2                !
 ! D97   D(43,18,19,20)       -179.9993         estimate D2E/DX2                !
 ! D98   D(43,18,19,44)          0.0012         estimate D2E/DX2                !
 ! D99   D(18,19,20,21)          0.0            estimate D2E/DX2                !
 ! D100  D(18,19,20,45)       -179.9996         estimate D2E/DX2                !
 ! D101  D(44,19,20,21)        179.9995         estimate D2E/DX2                !
 ! D102  D(44,19,20,45)         -0.0002         estimate D2E/DX2                !
 ! D103  D(19,20,21,22)          0.0            estimate D2E/DX2                !
 ! D104  D(19,20,21,46)       -179.9939         estimate D2E/DX2                !
 ! D105  D(45,20,21,22)        179.9997         estimate D2E/DX2                !
 ! D106  D(45,20,21,46)          0.0058         estimate D2E/DX2                !
 ! D107  D(20,21,22,17)         -0.0002         estimate D2E/DX2                !
 ! D108  D(20,21,22,23)       -179.9985         estimate D2E/DX2                !
 ! D109  D(46,21,22,17)        179.9938         estimate D2E/DX2                !
 ! D110  D(46,21,22,23)         -0.0046         estimate D2E/DX2                !
 ! D111  D(17,22,23,10)         -0.0021         estimate D2E/DX2                !
 ! D112  D(17,22,23,24)        179.9732         estimate D2E/DX2                !
 ! D113  D(21,22,23,10)        179.9963         estimate D2E/DX2                !
 ! D114  D(21,22,23,24)         -0.0284         estimate D2E/DX2                !
 ! D115  D(10,23,24,25)        119.5219         estimate D2E/DX2                !
 ! D116  D(10,23,24,26)       -117.4758         estimate D2E/DX2                !
 ! D117  D(10,23,24,27)         -0.1004         estimate D2E/DX2                !
 ! D118  D(22,23,24,25)        -60.4535         estimate D2E/DX2                !
 ! D119  D(22,23,24,26)         62.5487         estimate D2E/DX2                !
 ! D120  D(22,23,24,27)        179.9241         estimate D2E/DX2                !
 ! D121  D(23,24,27,8)           0.1156         estimate D2E/DX2                !
 ! D122  D(25,24,27,8)        -122.6032         estimate D2E/DX2                !
 ! D123  D(26,24,27,8)         116.7085         estimate D2E/DX2                !
 ! D124  D(7,28,29,4)            0.0007         estimate D2E/DX2                !
 ! D125  D(7,28,29,48)        -179.9999         estimate D2E/DX2                !
 ! D126  D(47,28,29,4)        -179.9996         estimate D2E/DX2                !
 ! D127  D(47,28,29,48)         -0.0002         estimate D2E/DX2                !
 --------------------------------------------------------------------------------
 Trust Radius=3.00D-01 FncErr=1.00D-07 GrdErr=1.00D-06 EigMax=2.50D+02 EigMin=1.00D-04
 Number of steps in this run=    277 maximum allowed number of steps=    288.
 GradGradGradGradGradGradGradGradGradGradGradGradGradGradGradGradGradGrad

 Leave Link  103 at Tue Dec  5 12:56:40 2023, MaxMem=  2147483648 cpu:               2.4 elap:               0.1
 (Enter /opt/gaussian/g16-c01/g16/l202.exe)
                          Input orientation:                          
 ---------------------------------------------------------------------
 Center     Atomic      Atomic             Coordinates (Angstroms)
 Number     Number       Type             X           Y           Z
 ---------------------------------------------------------------------
      1          6           0        7.025333    0.924711   -0.653204
      2          7           0        6.201630   -0.150642   -0.163306
      3          6           0        6.832098   -1.336656    0.356233
      4          6           0        4.777824    0.002526   -0.213252
      5          6           0        4.189893    1.138488   -0.715514
      6          6           0        2.828944    1.316945   -0.777354
      7          6           0        1.965543    0.318763   -0.317434
      8          6           0        0.535601    0.542988   -0.399108
      9          6           0       -0.329024   -0.364136    0.020148
     10          6           0       -1.767353   -0.133689   -0.064283
     11          6           0       -2.599930   -1.155861    0.406858
     12          6           0       -2.109505   -2.331350    0.928807
     13          6           0       -2.992731   -3.297535    1.375506
     14          6           0       -4.352564   -3.134570    1.320902
     15          6           0       -4.831105   -1.952100    0.795646
     16          6           0       -3.977892   -0.963893    0.339459
     17          6           0       -4.471201    0.216617   -0.184656
     18          6           0       -5.828855    0.417572   -0.256314
     19          6           0       -6.334512    1.609956   -0.785538
     20          6           0       -5.460936    2.543414   -1.217335
     21          6           0       -4.085814    2.392394   -1.168375
     22          6           0       -3.601252    1.208833   -0.642829
     23          7           0       -2.263421    0.995326   -0.565223
     24          5           0       -1.331859    2.104614   -1.077589
     25          9           0       -1.540860    2.391372   -2.489430
     26          9           0       -1.575859    3.283949   -0.235185
     27          8           0        0.072828    1.720708   -0.922199
     28          6           0        2.559481   -0.808789    0.180980
     29          6           0        3.941594   -0.990267    0.243878
     30          1           0        6.991125    0.940878   -1.762361
     31          1           0        6.719870    1.912478   -0.243048
     32          1           0        8.069086    0.759705   -0.325642
     33          1           0        6.811563   -1.262994    1.459897
     34          1           0        6.289987   -2.266232    0.087883
     35          1           0        7.866806   -1.403803   -0.030823
     36          1           0        4.861141    1.919523   -1.075607
     37          1           0        2.419447    2.240243   -1.186514
     38          1           0        0.025321   -1.297726    0.435066
     39          1           0       -1.068154   -2.565625    1.019868
     40          1           0       -2.615502   -4.234473    1.791696
     41          1           0       -5.044511   -3.915263    1.681553
     42          1           0       -5.904537   -1.877117    0.776678
     43          1           0       -6.525509   -0.321738    0.085728
     44          1           0       -7.423187    1.745457   -0.831458
     45          1           0       -5.841862    3.478159   -1.632416
     46          1           0       -3.417812    3.156138   -1.520915
     47          1           0        1.948786   -1.618309    0.552771
     48          1           0        4.361849   -1.898989    0.646346
 ---------------------------------------------------------------------
                    Distance matrix (angstroms):
                    1          2          3          4          5
     1  C    0.000000
     2  N    1.440441   0.000000
     3  C    2.483965   1.440153   0.000000
     4  C    2.468862   1.432892   2.517491   0.000000
     5  C    2.844170   2.452320   3.775742   1.374169   0.000000
     6  C    4.216508   3.729059   4.934760   2.417445   1.373992
     7  C    5.106994   4.264801   5.184361   2.831922   2.403778
     8  C    6.505913   5.713196   6.614339   4.280549   3.715990
     9  C    7.496739   6.536718   7.234668   5.125311   4.818681
    10  C    8.875718   7.969616   8.693361   6.548289   6.126281
    11  C    9.904453   8.877106   9.433896   7.493841   7.254340
    12  C    9.825984   8.661591   9.014961   7.361153   7.377397
    13  C   11.059142   9.839063  10.070314   8.590464   8.697169
    14  C   12.240564  11.067868  11.369246   9.775428   9.766247
    15  C   12.286185  11.219897  11.687693   9.857482   9.654726
    16  C   11.208174  10.224325  10.816428   8.826212   8.499746
    17  C   11.527846  10.679169  11.422337   9.251547   8.726179
    18  C   12.870309  12.044255  12.796572  10.614884  10.055143
    19  C   13.378062  12.674452  13.540524  11.242569  10.535193
    20  C   12.603387  12.016004  12.986522  10.597004   9.765457
    21  C   11.219496  10.644656  11.637485   9.229724   8.382404
    22  C   10.630388   9.908310  10.785751   8.476357   7.791802
    23  N    9.289439   8.551717   9.434813   7.119597   6.456651
    24  B    8.450736   7.916789   8.974875   6.518748   5.617316
    25  F    8.882707   8.474600   9.597000   7.128348   6.128460
    26  F    8.928676   8.502407   9.612154   7.151049   6.170706
    27  O    7.003092   6.452913   7.527921   5.058828   4.163163
    28  C    4.862584   3.717114   4.308667   2.394723   2.693294
    29  C    3.739163   2.445104   2.913352   1.376185   2.348123
    30  H    1.109802   2.090860   3.114625   2.859885   2.996972
    31  H    1.112304   2.128707   3.305844   2.724031   2.687577
    32  H    1.106320   2.083861   2.527810   3.379106   3.917093
    33  H    3.049089   2.060129   1.106310   2.921825   4.168055
    34  H    3.357389   2.132281   1.109057   2.743097   4.080191
    35  H    2.552922   2.088247   1.106771   3.398949   4.522359
    36  H    2.419050   2.629598   4.066637   2.103681   1.090989
    37  H    4.819671   4.590010   5.886065   3.393606   2.137799
    38  H    7.424535   6.310360   6.807345   4.969633   4.960104
    39  H    8.971407   7.751245   8.022765   6.503187   6.661761
    40  H   11.204482   9.911686   9.985742   8.754042   9.025974
    41  H   13.212024  12.002148  12.225364  10.743259  10.796321
    42  H   13.307003  12.264729  12.755028  10.891550  10.640396
    43  H   13.628095  12.730725  13.398839  11.311935  10.844081
    44  H   14.472910  13.772337  14.632948  12.340367  11.629509
    45  H   13.154606  12.663814  13.702789  11.263737  10.341706
    46  H   10.714078  10.262142  11.347667   8.878271   7.911811
    47  H    5.804538   4.555600   4.895375   3.349232   3.772405
    48  H    4.093441   2.664028   2.550003   2.127840   3.333241
                    6          7          8          9         10
     6  C    0.000000
     7  C    1.397625   0.000000
     8  C    2.449796   1.449718   0.000000
     9  C    3.665352   2.417716   1.321448   0.000000
    10  C    4.872243   3.768728   2.423550   1.459118   0.000000
    11  C    6.081924   4.852078   3.656121   2.435855   1.399998
    12  C    6.372544   5.018190   4.125744   2.804586   2.435777
    13  C    7.734348   6.366171   5.508902   4.187739   3.685711
    14  C    8.705902   7.384316   6.354292   5.055308   4.196110
    15  C    8.475691   7.251909   6.037751   4.836503   3.665061
    16  C    7.265157   6.115647   4.815370   3.711591   2.395564
    17  C    7.406357   6.438924   5.022009   4.187702   2.729102
    18  C    8.719968   7.795264   6.367293   5.561982   4.103238
    19  C    9.168143   8.412919   6.963203   6.372759   4.941604
    20  C    8.391658   7.804581   6.374140   6.026751   4.705206
    21  C    7.008806   6.453136   5.036820   4.808796   3.602135
    22  C    6.432512   5.646885   4.197178   3.690697   2.345265
    23  N    5.106919   4.289904   2.840199   2.435711   1.331052
    24  B    4.245332   3.826220   2.527137   2.881914   2.495284
    25  F    4.814643   4.616074   3.478169   3.919101   3.508357
    26  F    4.854415   4.619591   3.463813   3.863718   3.427262
    27  O    2.789297   2.431781   1.369236   2.322946   2.749741
    28  C    2.347288   1.368412   2.501978   2.926951   4.386047
    29  C    2.757559   2.435859   3.790131   4.322068   5.781070
    30  H    4.293648   5.266053   6.609884   7.646240   8.986050
    31  H    3.972335   5.014886   6.336011   7.412095   8.732223
    32  H    5.289012   6.119455   7.536960   8.480026   9.880384
    33  H    5.246202   5.398590   6.790079   7.339537   8.786140
    34  H    5.056344   5.054433   6.421981   6.887225   8.336164
    35  H    5.774065   6.154209   7.594221   8.261667   9.717578
    36  H    2.140533   3.394370   4.589422   5.775257   7.012517
    37  H    1.089761   2.157177   2.655100   3.974030   4.942090
    38  H    4.020792   2.635100   2.084337   1.081345   2.194997
    39  H    5.787204   4.394472   3.774784   2.528301   2.752921
    40  H    8.189032   6.794583   6.128067   4.831757   4.580441
    41  H    9.767984   8.429934   7.439274   6.132421   5.299812
    42  H    9.428188   8.243611   6.979596   5.826474   4.567609
    43  H    9.536036   8.524714   7.130364   6.196977   4.764233
    44  H   10.261225   9.510412   8.060717   7.450018   6.009010
    45  H    8.976907   8.524467   7.127995   6.919941   5.666225
    46  H    6.554195   6.203191   4.869957   4.930296   3.958378
    47  H    3.340603   2.123626   2.752157   2.654252   4.049017
    48  H    3.836528   3.404347   4.657939   4.975157   6.417819
                   11         12         13         14         15
    11  C    0.000000
    12  C    1.376489   0.000000
    13  C    2.383136   1.383164   0.000000
    14  C    2.796872   2.414584   1.370651   0.000000
    15  C    2.400686   2.751121   2.350756   1.379540   0.000000
    16  C    1.392901   2.389171   2.736754   2.411524   1.382979
    17  C    2.394836   3.648225   4.119374   3.675763   2.407043
    18  C    3.652594   4.774374   4.950602   4.157494   2.778034
    19  C    4.797776   6.026903   6.318313   5.556594   4.177154
    20  C    4.950555   6.292960   6.850660   6.317487   4.965725
    21  C    4.156841   5.533329   6.327832   6.067535   4.825709
    22  C    2.774215   4.150692   4.975071   4.825542   3.684189
    23  N    2.384488   3.650012   4.767282   4.997802   4.139117
    24  B    3.800301   4.930328   6.161119   6.505879   5.675444
    25  F    4.700317   5.857628   7.029177   7.277386   6.362640
    26  F    4.601397   5.759448   6.922267   7.164418   6.251036
    27  O    4.145441   4.960643   6.313467   6.941853   6.363102
    28  C    5.176002   4.967582   6.200630   7.381399   7.503715
    29  C    6.545649   6.235658   7.395196   8.634296   8.842501
    30  H   10.054360  10.038492  11.291047  12.441667  12.436955
    31  H    9.833400   9.866164  11.139954  12.268554  12.224519
    32  H   10.864339  10.711301  11.904575  13.121504  13.229743
    33  H    9.470827   9.000494  10.013524  11.320771  11.681944
    34  H    8.964669   8.441733   9.428171  10.748872  11.148018
    35  H   10.478817  10.065188  11.112764  12.415141  12.736586
    36  H    8.205076   8.406991   9.742123  10.778658  10.603334
    37  H    6.266299   6.773880   8.156139   9.001993   8.606695
    38  H    2.629233   2.422734   3.740628   4.829553   4.913563
    39  H    2.170151   1.071256   2.089538   3.346889   3.819226
    40  H    3.375777   2.149997   1.092414   2.109222   3.333202
    41  H    3.900657   3.419016   2.164499   1.103785   2.164343
    42  H    3.402559   3.825146   3.294662   2.070263   1.076215
    43  H    4.026047   4.924471   4.795771   3.762894   2.456231
    44  H    5.763235   6.924890   7.066215   6.154352   4.799821
    45  H    6.011897   7.364832   7.941988   7.393800   6.033641
    46  H    4.793597   6.150230   7.086596   6.965823   5.784285
    47  H    4.574491   4.137579   5.283492   6.526568   6.792446
    48  H    7.005424   6.491929   7.521798   8.827382   9.194320
                   16         17         18         19         20
    16  C    0.000000
    17  C    1.382626   0.000000
    18  C    2.385258   1.374315   0.000000
    19  C    3.666603   2.402994   1.399124   0.000000
    20  C    4.113907   2.731297   2.361807   1.349417   0.000000
    21  C    3.681015   2.418725   2.787466   2.411517   1.384256
    22  C    2.414019   1.396863   2.395350   2.766220   2.359997
    23  N    2.756157   2.371816   3.625127   4.123117   3.611915
    24  B    4.292464   3.770588   4.872738   5.035526   4.154678
    25  F    5.019914   4.316068   5.222030   5.147131   4.124117
    26  F    4.913669   4.218303   5.128795   5.074438   4.075148
    27  O    5.020677   4.842980   6.080414   6.409754   5.602365
    28  C    6.541133   7.114467   8.488779   9.267556   8.804524
    29  C    7.920107   8.509720   9.884021  10.649846  10.150350
    30  H   11.329834  11.593042  12.918743  13.378133  12.566583
    31  H   11.093013  11.318985  12.637461  13.069151  12.235986
    32  H   12.187815  12.552833  13.902324  14.435999  13.676192
    33  H   10.851598  11.497590  12.866618  13.642401  13.125187
    34  H   10.353198  11.047261  12.417230  13.235017  12.764031
    35  H   11.858647  12.444912  13.818082  14.537186  13.950521
    36  H    9.404520   9.528184  10.826039  11.203688  10.341886
    37  H    7.315807   7.251194   8.498346   8.785775   7.886273
    38  H    4.018246   4.784977   6.139351   7.098730   6.898101
    39  H    3.390439   4.557683   5.761283   6.959130   7.099570
    40  H    3.829072   5.211697   6.013444   7.391246   7.942954
    41  H    3.413133   4.569885   4.810819   6.186977   7.091648
    42  H    2.176488   2.713363   2.517617   3.845137   4.869699
    43  H    2.639525   2.140821   1.071867   2.127681   3.322707
    44  H    4.536704   3.386728   2.153129   1.098036   2.153152
    45  H    5.205238   3.822614   3.355744   2.109523   1.091396
    46  H    4.555144   3.396469   3.861617   3.382099   2.154518
    47  H    5.966513   6.717662   8.080293   8.990317   8.680852
    48  H    8.397611   9.120807  10.489600  11.347913  10.940537
                   21         22         23         24         25
    21  C    0.000000
    22  C    1.382684   0.000000
    23  N    2.374175   1.356982   0.000000
    24  B    2.770438   2.478222   1.536505   0.000000
    25  F    2.867399   3.008912   2.484675   1.455749   0.000000
    26  F    2.822337   2.928224   2.412356   1.469698   2.424776
    27  O    4.219724   3.720071   2.472179   1.464471   2.347337
    28  C    7.498552   6.534837   5.203079   5.021398   5.846787
    29  C    8.824746   7.906758   6.565016   6.255707   6.997411
    30  H   11.187417  10.654746   9.331813   8.431800   8.684891
    31  H   10.855844  10.352802   9.035734   8.097142   8.574102
    32  H   12.292984  11.683283  10.337970   9.526383   9.984757
    33  H   11.790780  10.906792   9.568514   9.170329   9.935519
    34  H   11.442824  10.509359   9.177423   8.863135   9.468790
    35  H   12.592468  11.777808  10.424150   9.900512  10.438021
    36  H    8.959923   8.503204   7.202362   6.195766   6.573215
    37  H    6.507065   6.132554   4.885189   3.755337   4.171865
    38  H    5.752342   4.538362   3.390723   3.963077   4.961355
    39  H    6.202953   4.840215   4.076953   5.126402   6.091834
    40  H    7.405350   6.043856   5.747158   7.075631   7.961452
    41  H    6.987684   5.808796   6.074236   7.591809   8.333446
    42  H    5.031869   4.104048   4.827976   6.340495   6.923087
    43  H    3.858937   3.380048   4.508191   5.849315   6.232105
    44  H    3.416153   3.864031   5.220801   6.106869   6.145555
    45  H    2.116111   3.339080   4.484261   4.747061   4.518207
    46  H    1.074158   2.143987   2.629653   2.377696   2.246294
    47  H    7.447448   6.342327   5.081701   5.223108   6.124554
    48  H    9.647393   8.644739   7.330700   7.170711   7.942434
                   26         27         28         29         30
    26  F    0.000000
    27  O    2.373579   0.000000
    28  C    5.833072   3.714674   0.000000
    29  C    6.995764   4.865847   1.395395   0.000000
    30  H    9.011962   7.012620   5.145617   4.129643   0.000000
    31  H    8.408336   6.684399   4.989382   4.047449   1.823704
    32  H    9.970203   8.075862   5.750877   4.519175   1.805266
    33  H    9.690038   7.745154   4.463422   3.128866   3.907971
    34  H    9.632259   7.454463   4.006180   2.677195   3.768362
    35  H   10.544226   8.444123   5.344773   3.956484   3.043447
    36  H    6.633471   4.794893   3.784222   3.324678   2.442582
    37  H    4.237549   2.417933   3.344585   3.846966   4.787503
    38  H    4.899465   3.309890   2.593373   3.932973   7.639533
    39  H    6.004202   4.842119   4.117031   5.308624   9.218912
    40  H    7.855939   7.075064   6.411721   7.477708  11.476187
    41  H    8.217912   8.045549   8.350006   9.558901  13.427553
    42  H    6.811602   7.180489   8.551946   9.900337  13.441946
    43  H    6.132128   6.980369   9.098535  10.489623  13.700694
    44  H    6.075668   7.496605  10.353882  11.738773  14.466731
    45  H    4.493190   6.211006   9.604629  10.918027  13.082058
    46  H    2.249940   3.821451   7.371915   8.629486  10.644794
    47  H    6.089017   4.104119   1.080046   2.112140   6.110193
    48  H    7.930720   5.827370   2.157228   1.079060   4.558487
                   31         32         33         34         35
    31  H    0.000000
    32  H    1.776539   0.000000
    33  H    3.604449   2.976714   0.000000
    34  H    4.213779   3.534472   1.777906   0.000000
    35  H    3.515426   2.192853   1.831833   1.801175   0.000000
    36  H    2.036683   3.492640   4.512354   4.573385   4.601097
    37  H    4.414883   5.903517   6.210221   6.075647   6.654954
    38  H    7.455349   8.337497   6.863277   6.348589   7.856029
    39  H    9.072027   9.816179   7.998776   7.422969   9.071234
    40  H   11.361090  11.982711   9.889860   9.278183  11.009680
    41  H   13.269036  14.065937  12.151138  11.564166  13.264304
    42  H   13.220307  14.262892  12.749241  12.220158  13.803115
    43  H   13.436513  14.640388  13.440677  12.962176  14.433405
    44  H   14.156277  15.531841  14.728516  14.317471  15.631466
    45  H   12.734944  14.234189  13.861822  13.532894  14.639885
    46  H   10.293310  11.794931  11.534907  11.235288  12.261975
    47  H    5.988575   6.624548   4.959408   4.413836   5.950593
    48  H    4.569307   4.664442   2.658468   2.040702   3.603955
                   36         37         38         39         40
    36  H    0.000000
    37  H    2.465164   0.000000
    38  H    6.001498   4.569309   0.000000
    39  H    7.724254   6.334655   1.773485   0.000000
    40  H   10.099172   8.725961   4.175988   2.403135   0.000000
    41  H   11.822377  10.090923   5.840242   4.250972   2.452368
    42  H   11.564828   9.491864   5.967881   4.891195   4.171947
    43  H   11.663093   9.391197   6.632342   5.974142   5.788607
    44  H   12.287987   9.861456   8.145263   7.899322   8.108905
    45  H   10.830220   8.365434   7.842665   8.145565   9.034303
    46  H    8.382636   5.918131   5.959692   6.686931   8.138687
    47  H    4.863094   4.258528   1.953547   3.196485   5.404810
    48  H    4.218465   4.926007   4.383108   5.483508   7.446458
                   41         42         43         44         45
    41  H    0.000000
    42  H    2.390080   0.000000
    43  H    4.201599   1.811690   0.000000
    44  H    6.634537   4.244460   2.433177   0.000000
    45  H    8.141305   5.872533   4.225945   2.478786   0.000000
    46  H    7.931372   6.066003   4.933022   4.302139   2.447887
    47  H    7.446902   7.860776   8.585622  10.053103   9.562595
    48  H    9.675568  10.267237  11.015288  12.423887  11.756794
                   46         47         48
    46  H    0.000000
    47  H    7.476356   0.000000
    48  H    9.527563   2.431134   0.000000
 Stoichiometry    C23H19BF2N2O
 Framework group  C1[X(C23H19BF2N2O)]
 Deg. of freedom   138
 Full point group                 C1      NOp   1
 Largest Abelian subgroup         C1      NOp   1
 Largest concise Abelian subgroup C1      NOp   1
                         Standard orientation:                         
 ---------------------------------------------------------------------
 Center     Atomic      Atomic             Coordinates (Angstroms)
 Number     Number       Type             X           Y           Z
 ---------------------------------------------------------------------
      1          6           0       -7.485633   -0.934095    0.002670
      2          7           0       -6.687350    0.264906   -0.000667
      3          6           0       -7.345437    1.545902   -0.003870
      4          6           0       -5.260343    0.135178   -0.001554
      5          6           0       -4.645967   -1.094001   -0.002526
      6          6           0       -3.281207   -1.253007   -0.003125
      7          6           0       -2.441417   -0.135820   -0.002746
      8          6           0       -1.006612   -0.343217   -0.003590
      9          6           0       -0.163465    0.674294   -0.003076
     10          6           0        1.279871    0.460272   -0.003996
     11          6           0        2.088285    1.603276   -0.002803
     12          6           0        1.570465    2.878651   -0.001270
     13          6           0        2.430826    3.961665   -0.000114
     14          6           0        3.794108    3.819727   -0.000435
     15          6           0        4.300211    2.536377   -0.001979
     16          6           0        3.470371    1.430034   -0.003163
     17          6           0        3.991192    0.149254   -0.004654
     18          6           0        5.353186   -0.034363   -0.004967
     19          6           0        5.886631   -1.327801   -0.006418
     20          6           0        5.035151   -2.374657   -0.007488
     21          6           0        3.656863   -2.246252   -0.007237
     22          6           0        3.144715   -0.961917   -0.005798
     23          7           0        1.802245   -0.763992   -0.005444
     24          5           0        0.896910   -2.005448   -0.007362
     25          9           0        1.109003   -2.840390   -1.180859
     26          9           0        1.172261   -2.731193    1.240631
     27          8           0       -0.516383   -1.621686   -0.004903
     28          6           0       -3.061602    1.083985   -0.001768
     29          6           0       -4.447591    1.245728   -0.001172
     30          1           0       -7.454114   -1.402068   -1.003147
     31          1           0       -7.154762   -1.660697    0.777133
     32          1           0       -8.532226   -0.671824    0.247214
     33          1           0       -7.320029    1.930859    1.032993
     34          1           0       -6.827166    2.295577   -0.635844
     35          1           0       -8.382556    1.426624   -0.371427
     36          1           0       -5.298742   -1.968152   -0.003083
     37          1           0       -2.850197   -2.253911   -0.003898
     38          1           0       -0.539578    1.688121   -0.001957
     39          1           0        0.523908    3.107362   -0.000879
     40          1           0        2.031757    4.978578    0.001085
     41          1           0        4.467586    4.694238    0.000510
     42          1           0        5.375109    2.483157   -0.002163
     43          1           0        6.032338    0.794884   -0.004130
     44          1           0        6.978185   -1.446928   -0.006628
     45          1           0        5.437864   -3.389037   -0.008619
     46          1           0        3.006928   -3.101471   -0.008017
     47          1           0       -2.470031    1.987613   -0.001426
     48          1           0       -4.889014    2.230367   -0.000407
 ---------------------------------------------------------------------
 Rotational constants (GHZ):           0.3499656           0.0827280           0.0679738
 Leave Link  202 at Tue Dec  5 12:56:41 2023, MaxMem=  2147483648 cpu:               4.0 elap:               0.2
 (Enter /opt/gaussian/g16-c01/g16/l301.exe)
 Standard basis: 6-311++G(d,p) (5D, 7F)
 Ernie: Thresh=  0.10000D-02 Tol=  0.10000D-05 Strict=F.
 There are   800 symmetry adapted cartesian basis functions of A   symmetry.
 There are   771 symmetry adapted basis functions of A   symmetry.
   771 basis functions,  1215 primitive gaussians,   800 cartesian basis functions
   101 alpha electrons      101 beta electrons
       nuclear repulsion energy      2587.4678365327 Hartrees.
 IExCor= 7252 DFT=T Ex+Corr=MN15 ExCW=0 ScaHFX=  0.440000
 ScaDFX=  1.000000  1.000000  1.000000  1.000000 ScalE2=  1.000000  1.000000
 IRadAn=      5 IRanWt=     -1 IRanGd=            0 ICorTp=0 IEmpDi=  4
 NAtoms=   48 NActive=   48 NUniq=   48 SFac= 1.00D+00 NAtFMM=   60 NAOKFM=F Big=F
 Integral buffers will be    131072 words long.
 Raffenetti 2 integral format.
 Two-electron integral symmetry is turned on.
 Leave Link  301 at Tue Dec  5 12:56:41 2023, MaxMem=  2147483648 cpu:               4.1 elap:               0.2
 (Enter /opt/gaussian/g16-c01/g16/l302.exe)
 NPDir=0 NMtPBC=     1 NCelOv=     1 NCel=       1 NClECP=     1 NCelD=      1
         NCelK=      1 NCelE2=     1 NClLst=     1 CellRange=     0.0.
 One-electron integrals computed using PRISM.
 One-electron integral symmetry used in STVInt
 NBasis=   771 RedAO= T EigKep=  1.44D-06  NBF=   771
 NBsUse=   756 1.00D-06 EigRej=  9.79D-07 NBFU=   756
 Precomputing XC quadrature grid using
 IXCGrd= 4 IRadAn=           5 IRanWt=          -1 IRanGd=           0 AccXCQ= 0.00D+00.
 Generated NRdTot=       0 NPtTot=           0 NUsed=           0 NTot=          32
 NSgBfM=   786   785   785   786   786 MxSgAt=    48 MxSgA2=    48.
 Leave Link  302 at Tue Dec  5 12:59:26 2023, MaxMem=  2147483648 cpu:            4099.1 elap:             165.4
 (Enter /opt/gaussian/g16-c01/g16/l303.exe)
 DipDrv:  MaxL=1.
 Leave Link  303 at Tue Dec  5 12:59:28 2023, MaxMem=  2147483648 cpu:              32.5 elap:               1.9
 (Enter /opt/gaussian/g16-c01/g16/l401.exe)
 ExpMin= 3.15D-02 ExpMax= 1.14D+04 ExpMxC= 1.72D+03 IAcc=3 IRadAn=         5 AccDes= 0.00D+00
 Harris functional with IExCor= 1009 and IRadAn=       5 diagonalized for initial guess.
 HarFok:  IExCor= 1009 AccDes= 0.00D+00 IRadAn=         5 IDoV= 1 UseB2=F ITyADJ=14
 ICtDFT=  3500011 ScaDFX=  1.000000  1.000000  1.000000  1.000000
 FoFCou: FMM=F IPFlag=           0 FMFlag=      100000 FMFlg1=           0
         NFxFlg=           0 DoJE=T BraDBF=F KetDBF=T FulRan=T
         wScrn=  0.000000 ICntrl=       500 IOpCl=  0 I1Cent=   200000004 NGrid=           0
         NMat0=    1 NMatS0=      1 NMatT0=    0 NMatD0=    1 NMtDS0=    0 NMtDT0=    0
 Petite list used in FoFCou.
 Harris En= -1296.48678381727    
 JPrj=0 DoOrth=F DoCkMO=F.
 Leave Link  401 at Tue Dec  5 12:59:54 2023, MaxMem=  2147483648 cpu:             604.2 elap:              24.9
 (Enter /opt/gaussian/g16-c01/g16/l502.exe)
 Integral symmetry usage will be decided dynamically.
 Closed shell SCF:
 Using DIIS extrapolation, IDIIS=  1040.
 NGot=  2147483648 LenX=  2146174250 LenY=  2145533450
 Requested convergence on RMS density matrix=1.00D-08 within 128 cycles.
 Requested convergence on MAX density matrix=1.00D-06.
 Requested convergence on             energy=1.00D-06.
 No special actions if energy rises.
 Fock matrices will be formed incrementally for  20 cycles.

 Cycle   1  Pass 1  IDiag  1:
 FoFJK:  IHMeth= 1 ICntrl=       0 DoSepK=F KAlg= 0 I1Cent=           0 FoldK=F
 IRaf= 740000000 NMat=       1 IRICut=       1 DoRegI=T DoRafI=F ISym2E= 0 IDoP0=0 IntGTp=1.
 FoFCou: FMM=F IPFlag=           0 FMFlag=      100000 FMFlg1=           0
         NFxFlg=           0 DoJE=F BraDBF=F KetDBF=F FulRan=T
         wScrn=  0.000000 ICntrl=         0 IOpCl=  0 I1Cent=           0 NGrid=           0
         NMat0=    1 NMatS0=      1 NMatT0=    0 NMatD0=    1 NMtDS0=    0 NMtDT0=    0
 Symmetry not used in FoFCou.
 E= -1295.60475794597    
 DIIS: error= 2.41D-02 at cycle   1 NSaved=   1.
 NSaved= 1 IEnMin= 1 EnMin= -1295.60475794597     IErMin= 1 ErrMin= 2.41D-02
 ErrMax= 2.41D-02  0.00D+00 EMaxC= 1.00D-01 BMatC= 7.34D-01 BMatP= 7.34D-01
 IDIUse=3 WtCom= 7.59D-01 WtEn= 2.41D-01
 Coeff-Com:  0.100D+01
 Coeff-En:   0.100D+01
 Coeff:      0.100D+01
 Gap=     0.169 Goal=   None    Shift=    0.000
 GapD=    0.169 DampG=1.000 DampE=0.500 DampFc=0.5000 IDamp=-1.
 Damping current iteration by 5.00D-01
 RMSDP=9.77D-03 MaxDP=1.10D+00              OVMax= 1.74D-01

 Cycle   2  Pass 1  IDiag  1:
 RMSU=  4.37D-03    CP:  9.33D-01
 E= -1295.87646362384     Delta-E=       -0.271705677871 Rises=F Damp=T
 DIIS: error= 1.17D-02 at cycle   2 NSaved=   2.
 NSaved= 2 IEnMin= 2 EnMin= -1295.87646362384     IErMin= 2 ErrMin= 1.17D-02
 ErrMax= 1.17D-02  0.00D+00 EMaxC= 1.00D-01 BMatC= 8.56D-02 BMatP= 7.34D-01
 IDIUse=3 WtCom= 8.83D-01 WtEn= 1.17D-01
 Coeff-Com: -0.701D-01 0.107D+01
 Coeff-En:   0.000D+00 0.100D+01
 Coeff:     -0.619D-01 0.106D+01
 Gap=     0.186 Goal=   None    Shift=    0.000
 RMSDP=6.09D-03 MaxDP=8.89D-01 DE=-2.72D-01 OVMax= 1.43D-01

 Cycle   3  Pass 1  IDiag  1:
 RMSU=  3.23D-03    CP:  7.75D-01  8.71D-01
 E= -1296.12543279593     Delta-E=       -0.248969172091 Rises=F Damp=F
 DIIS: error= 1.13D-02 at cycle   3 NSaved=   3.
 NSaved= 3 IEnMin= 3 EnMin= -1296.12543279593     IErMin= 3 ErrMin= 1.13D-02
 ErrMax= 1.13D-02  0.00D+00 EMaxC= 1.00D-01 BMatC= 5.25D-02 BMatP= 8.56D-02
 IDIUse=3 WtCom= 8.87D-01 WtEn= 1.13D-01
 Coeff-Com: -0.121D+00 0.510D+00 0.610D+00
 Coeff-En:   0.000D+00 0.000D+00 0.100D+01
 Coeff:     -0.107D+00 0.453D+00 0.654D+00
 Gap=     0.161 Goal=   None    Shift=    0.000
 RMSDP=2.14D-03 MaxDP=1.81D-01 DE=-2.49D-01 OVMax= 7.70D-02

 Cycle   4  Pass 1  IDiag  1:
 RMSU=  1.49D-03    CP:  7.38D-01  1.05D+00  8.19D-01
 E= -1296.15485730186     Delta-E=       -0.029424505922 Rises=F Damp=F
 DIIS: error= 8.51D-03 at cycle   4 NSaved=   4.
 NSaved= 4 IEnMin= 4 EnMin= -1296.15485730186     IErMin= 4 ErrMin= 8.51D-03
 ErrMax= 8.51D-03  0.00D+00 EMaxC= 1.00D-01 BMatC= 1.72D-02 BMatP= 5.25D-02
 IDIUse=3 WtCom= 9.15D-01 WtEn= 8.51D-02
 Coeff-Com: -0.490D-01 0.149D+00 0.400D+00 0.500D+00
 Coeff-En:   0.000D+00 0.000D+00 0.296D+00 0.704D+00
 Coeff:     -0.449D-01 0.136D+00 0.392D+00 0.517D+00
 Gap=     0.160 Goal=   None    Shift=    0.000
 RMSDP=7.97D-04 MaxDP=4.40D-02 DE=-2.94D-02 OVMax= 3.45D-02

 Cycle   5  Pass 1  IDiag  1:
 RMSU=  4.92D-04    CP:  7.39D-01  1.02D+00  8.33D-01  5.89D-01
 E= -1296.17146784971     Delta-E=       -0.016610547851 Rises=F Damp=F
 DIIS: error= 1.59D-03 at cycle   5 NSaved=   5.
 NSaved= 5 IEnMin= 5 EnMin= -1296.17146784971     IErMin= 5 ErrMin= 1.59D-03
 ErrMax= 1.59D-03  0.00D+00 EMaxC= 1.00D-01 BMatC= 5.83D-04 BMatP= 1.72D-02
 IDIUse=3 WtCom= 9.84D-01 WtEn= 1.59D-02
 Coeff-Com: -0.165D-01 0.427D-01 0.160D+00 0.261D+00 0.553D+00
 Coeff-En:   0.000D+00 0.000D+00 0.000D+00 0.000D+00 0.100D+01
 Coeff:     -0.162D-01 0.420D-01 0.157D+00 0.257D+00 0.560D+00
 Gap=     0.158 Goal=   None    Shift=    0.000
 RMSDP=1.53D-04 MaxDP=1.32D-02 DE=-1.66D-02 OVMax= 7.70D-03

 Cycle   6  Pass 1  IDiag  1:
 RMSU=  9.53D-05    CP:  7.40D-01  1.02D+00  8.41D-01  6.12D-01  7.78D-01
 E= -1296.17198507054     Delta-E=       -0.000517220835 Rises=F Damp=F
 DIIS: error= 4.67D-04 at cycle   6 NSaved=   6.
 NSaved= 6 IEnMin= 6 EnMin= -1296.17198507054     IErMin= 6 ErrMin= 4.67D-04
 ErrMax= 4.67D-04  0.00D+00 EMaxC= 1.00D-01 BMatC= 5.79D-05 BMatP= 5.83D-04
 IDIUse=3 WtCom= 9.95D-01 WtEn= 4.67D-03
 Coeff-Com: -0.219D-02 0.347D-02 0.255D-01 0.601D-01 0.286D+00 0.627D+00
 Coeff-En:   0.000D+00 0.000D+00 0.000D+00 0.000D+00 0.168D-01 0.983D+00
 Coeff:     -0.218D-02 0.346D-02 0.254D-01 0.598D-01 0.284D+00 0.629D+00
 Gap=     0.158 Goal=   None    Shift=    0.000
 RMSDP=4.49D-05 MaxDP=3.23D-03 DE=-5.17D-04 OVMax= 2.14D-03

 Cycle   7  Pass 1  IDiag  1:
 RMSU=  3.28D-05    CP:  7.40D-01  1.02D+00  8.44D-01  6.09D-01  7.64D-01
                    CP:  7.66D-01
 E= -1296.17203760323     Delta-E=       -0.000052532687 Rises=F Damp=F
 DIIS: error= 5.41D-05 at cycle   7 NSaved=   7.
 NSaved= 7 IEnMin= 7 EnMin= -1296.17203760323     IErMin= 7 ErrMin= 5.41D-05
 ErrMax= 5.41D-05  0.00D+00 EMaxC= 1.00D-01 BMatC= 2.40D-06 BMatP= 5.79D-05
 IDIUse=1 WtCom= 1.00D+00 WtEn= 0.00D+00
 Coeff-Com:  0.688D-03-0.286D-02-0.637D-02-0.278D-02 0.543D-01 0.219D+00
 Coeff-Com:  0.738D+00
 Coeff:      0.688D-03-0.286D-02-0.637D-02-0.278D-02 0.543D-01 0.219D+00
 Coeff:      0.738D+00
 Gap=     0.158 Goal=   None    Shift=    0.000
 RMSDP=1.05D-05 MaxDP=1.12D-03 DE=-5.25D-05 OVMax= 7.07D-04

 Cycle   8  Pass 1  IDiag  1:
 RMSU=  9.18D-06    CP:  7.40D-01  1.02D+00  8.43D-01  6.11D-01  7.67D-01
                    CP:  7.76D-01  1.10D+00
 E= -1296.17203992808     Delta-E=       -0.000002324849 Rises=F Damp=F
 DIIS: error= 4.14D-05 at cycle   8 NSaved=   8.
 NSaved= 8 IEnMin= 8 EnMin= -1296.17203992808     IErMin= 8 ErrMin= 4.14D-05
 ErrMax= 4.14D-05  0.00D+00 EMaxC= 1.00D-01 BMatC= 6.24D-07 BMatP= 2.40D-06
 IDIUse=1 WtCom= 1.00D+00 WtEn= 0.00D+00
 Coeff-Com:  0.621D-03-0.194D-02-0.623D-02-0.817D-02-0.367D-02 0.439D-01
 Coeff-Com:  0.383D+00 0.592D+00
 Coeff:      0.621D-03-0.194D-02-0.623D-02-0.817D-02-0.367D-02 0.439D-01
 Coeff:      0.383D+00 0.592D+00
 Gap=     0.158 Goal=   None    Shift=    0.000
 RMSDP=6.32D-06 MaxDP=5.19D-04 DE=-2.32D-06 OVMax= 2.60D-04

 Cycle   9  Pass 1  IDiag  1:
 RMSU=  4.38D-06    CP:  7.40D-01  1.02D+00  8.43D-01  6.10D-01  7.72D-01
                    CP:  7.95D-01  1.11D+00  9.15D-01
 E= -1296.17204062449     Delta-E=       -0.000000696412 Rises=F Damp=F
 DIIS: error= 1.48D-05 at cycle   9 NSaved=   9.
 NSaved= 9 IEnMin= 9 EnMin= -1296.17204062449     IErMin= 9 ErrMin= 1.48D-05
 ErrMax= 1.48D-05  0.00D+00 EMaxC= 1.00D-01 BMatC= 6.57D-08 BMatP= 6.24D-07
 IDIUse=1 WtCom= 1.00D+00 WtEn= 0.00D+00
 Coeff-Com:  0.184D-03-0.449D-03-0.182D-02-0.305D-02-0.846D-02-0.717D-02
 Coeff-Com:  0.578D-01 0.258D+00 0.705D+00
 Coeff:      0.184D-03-0.449D-03-0.182D-02-0.305D-02-0.846D-02-0.717D-02
 Coeff:      0.578D-01 0.258D+00 0.705D+00
 Gap=     0.158 Goal=   None    Shift=    0.000
 RMSDP=1.87D-06 MaxDP=2.30D-04 DE=-6.96D-07 OVMax= 1.77D-04

 Cycle  10  Pass 1  IDiag  1:
 RMSU=  1.32D-06    CP:  7.40D-01  1.02D+00  8.43D-01  6.10D-01  7.71D-01
                    CP:  8.00D-01  1.13D+00  9.92D-01  9.51D-01
 E= -1296.17204071391     Delta-E=       -0.000000089418 Rises=F Damp=F
 DIIS: error= 7.69D-06 at cycle  10 NSaved=  10.
 NSaved=10 IEnMin=10 EnMin= -1296.17204071391     IErMin=10 ErrMin= 7.69D-06
 ErrMax= 7.69D-06  0.00D+00 EMaxC= 1.00D-01 BMatC= 1.81D-08 BMatP= 6.57D-08
 IDIUse=1 WtCom= 1.00D+00 WtEn= 0.00D+00
 Coeff-Com: -0.118D-04 0.112D-03 0.141D-03-0.194D-03-0.489D-02-0.138D-01
 Coeff-Com: -0.462D-01 0.267D-01 0.395D+00 0.643D+00
 Coeff:     -0.118D-04 0.112D-03 0.141D-03-0.194D-03-0.489D-02-0.138D-01
 Coeff:     -0.462D-01 0.267D-01 0.395D+00 0.643D+00
 Gap=     0.158 Goal=   None    Shift=    0.000
 RMSDP=9.54D-07 MaxDP=1.26D-04 DE=-8.94D-08 OVMax= 7.10D-05

 Cycle  11  Pass 1  IDiag  1:
 RMSU=  5.44D-07    CP:  7.40D-01  1.02D+00  8.43D-01  6.10D-01  7.71D-01
                    CP:  8.01D-01  1.14D+00  1.00D+00  1.04D+00  9.62D-01
 E= -1296.17204073648     Delta-E=       -0.000000022572 Rises=F Damp=F
 DIIS: error= 1.63D-06 at cycle  11 NSaved=  11.
 NSaved=11 IEnMin=11 EnMin= -1296.17204073648     IErMin=11 ErrMin= 1.63D-06
 ErrMax= 1.63D-06  0.00D+00 EMaxC= 1.00D-01 BMatC= 1.09D-09 BMatP= 1.81D-08
 IDIUse=1 WtCom= 1.00D+00 WtEn= 0.00D+00
 Coeff-Com: -0.255D-04 0.958D-04 0.265D-03 0.309D-03-0.101D-02-0.432D-02
 Coeff-Com: -0.242D-01-0.167D-01 0.896D-01 0.260D+00 0.696D+00
 Coeff:     -0.255D-04 0.958D-04 0.265D-03 0.309D-03-0.101D-02-0.432D-02
 Coeff:     -0.242D-01-0.167D-01 0.896D-01 0.260D+00 0.696D+00
 Gap=     0.158 Goal=   None    Shift=    0.000
 RMSDP=2.97D-07 MaxDP=2.19D-05 DE=-2.26D-08 OVMax= 2.30D-05

 Cycle  12  Pass 1  IDiag  1:
 RMSU=  1.82D-07    CP:  7.40D-01  1.02D+00  8.43D-01  6.10D-01  7.70D-01
                    CP:  8.01D-01  1.14D+00  1.01D+00  1.06D+00  1.02D+00
                    CP:  1.04D+00
 E= -1296.17204073768     Delta-E=       -0.000000001200 Rises=F Damp=F
 DIIS: error= 6.35D-07 at cycle  12 NSaved=  12.
 NSaved=12 IEnMin=12 EnMin= -1296.17204073768     IErMin=12 ErrMin= 6.35D-07
 ErrMax= 6.35D-07  0.00D+00 EMaxC= 1.00D-01 BMatC= 2.16D-10 BMatP= 1.09D-09
 IDIUse=1 WtCom= 1.00D+00 WtEn= 0.00D+00
 Coeff-Com: -0.945D-05 0.276D-04 0.946D-04 0.161D-03 0.897D-04-0.214D-03
 Coeff-Com: -0.474D-02-0.128D-01-0.169D-01 0.291D-01 0.335D+00 0.670D+00
 Coeff:     -0.945D-05 0.276D-04 0.946D-04 0.161D-03 0.897D-04-0.214D-03
 Coeff:     -0.474D-02-0.128D-01-0.169D-01 0.291D-01 0.335D+00 0.670D+00
 Gap=     0.158 Goal=   None    Shift=    0.000
 RMSDP=1.19D-07 MaxDP=1.15D-05 DE=-1.20D-09 OVMax= 7.77D-06

 Cycle  13  Pass 1  IDiag  1:
 RMSU=  6.49D-08    CP:  7.40D-01  1.02D+00  8.43D-01  6.10D-01  7.71D-01
                    CP:  8.01D-01  1.14D+00  1.01D+00  1.07D+00  1.05D+00
                    CP:  1.09D+00  9.75D-01
 E= -1296.17204073802     Delta-E=       -0.000000000338 Rises=F Damp=F
 DIIS: error= 1.80D-07 at cycle  13 NSaved=  13.
 NSaved=13 IEnMin=13 EnMin= -1296.17204073802     IErMin=13 ErrMin= 1.80D-07
 ErrMax= 1.80D-07  0.00D+00 EMaxC= 1.00D-01 BMatC= 1.47D-11 BMatP= 2.16D-10
 IDIUse=1 WtCom= 1.00D+00 WtEn= 0.00D+00
 Coeff-Com: -0.361D-06-0.179D-05 0.341D-05 0.289D-04 0.151D-03 0.528D-03
 Coeff-Com:  0.161D-02-0.250D-02-0.153D-01-0.173D-01 0.328D-01 0.211D+00
 Coeff-Com:  0.789D+00
 Coeff:     -0.361D-06-0.179D-05 0.341D-05 0.289D-04 0.151D-03 0.528D-03
 Coeff:      0.161D-02-0.250D-02-0.153D-01-0.173D-01 0.328D-01 0.211D+00
 Coeff:      0.789D+00
 Gap=     0.158 Goal=   None    Shift=    0.000
 RMSDP=4.29D-08 MaxDP=2.57D-06 DE=-3.38D-10 OVMax= 3.39D-06

 Cycle  14  Pass 1  IDiag  1:
 RMSU=  2.31D-08    CP:  7.40D-01  1.02D+00  8.43D-01  6.10D-01  7.70D-01
                    CP:  8.02D-01  1.14D+00  1.01D+00  1.07D+00  1.06D+00
                    CP:  1.12D+00  1.03D+00  1.01D+00
 E= -1296.17204073800     Delta-E=        0.000000000015 Rises=F Damp=F
 DIIS: error= 1.20D-07 at cycle  14 NSaved=  14.
 NSaved=14 IEnMin=13 EnMin= -1296.17204073802     IErMin=14 ErrMin= 1.20D-07
 ErrMax= 1.20D-07  0.00D+00 EMaxC= 1.00D-01 BMatC= 3.94D-12 BMatP= 1.47D-11
 IDIUse=1 WtCom= 1.00D+00 WtEn= 0.00D+00
 Coeff-Com:  0.990D-06-0.411D-05-0.965D-05-0.416D-05 0.448D-04 0.260D-03
 Coeff-Com:  0.131D-02-0.427D-04-0.592D-02-0.111D-01-0.223D-01 0.189D-01
 Coeff-Com:  0.384D+00 0.635D+00
 Coeff:      0.990D-06-0.411D-05-0.965D-05-0.416D-05 0.448D-04 0.260D-03
 Coeff:      0.131D-02-0.427D-04-0.592D-02-0.111D-01-0.223D-01 0.189D-01
 Coeff:      0.384D+00 0.635D+00
 Gap=     0.158 Goal=   None    Shift=    0.000
 RMSDP=1.57D-08 MaxDP=1.31D-06 DE= 1.50D-11 OVMax= 9.20D-07

 Cycle  15  Pass 1  IDiag  1:
 RMSU=  7.73D-09    CP:  7.40D-01  1.02D+00  8.43D-01  6.10D-01  7.70D-01
                    CP:  8.02D-01  1.14D+00  1.01D+00  1.07D+00  1.06D+00
                    CP:  1.12D+00  1.06D+00  1.07D+00  9.39D-01
 E= -1296.17204073792     Delta-E=        0.000000000080 Rises=F Damp=F
 DIIS: error= 3.73D-08 at cycle  15 NSaved=  15.
 NSaved=15 IEnMin=13 EnMin= -1296.17204073802     IErMin=15 ErrMin= 3.73D-08
 ErrMax= 3.73D-08  0.00D+00 EMaxC= 1.00D-01 BMatC= 6.40D-13 BMatP= 3.94D-12
 IDIUse=1 WtCom= 1.00D+00 WtEn= 0.00D+00
 Coeff-Com:  0.570D-06-0.167D-05-0.520D-05-0.641D-05-0.111D-04 0.252D-04
 Coeff-Com:  0.341D-03 0.470D-03 0.536D-03-0.953D-03-0.178D-01-0.373D-01
 Coeff-Com:  0.276D-01 0.306D+00 0.721D+00
 Coeff:      0.570D-06-0.167D-05-0.520D-05-0.641D-05-0.111D-04 0.252D-04
 Coeff:      0.341D-03 0.470D-03 0.536D-03-0.953D-03-0.178D-01-0.373D-01
 Coeff:      0.276D-01 0.306D+00 0.721D+00
 Gap=     0.158 Goal=   None    Shift=    0.000
 RMSDP=7.67D-09 MaxDP=5.69D-07 DE= 8.00D-11 OVMax= 5.01D-07

 SCF Done:  E(RMN15) =  -1296.17204074     A.U. after   15 cycles
            NFock= 15  Conv=0.77D-08     -V/T= 2.0026
 KE= 1.292790417424D+03 PE=-8.202928526817D+03 EE= 3.026498232123D+03
 Leave Link  502 at Tue Dec  5 13:08:18 2023, MaxMem=  2147483648 cpu:           12380.7 elap:             503.7
 (Enter /opt/gaussian/g16-c01/g16/l601.exe)
 Copying SCF densities to generalized density rwf, IOpCl= 0 IROHF=0.

 **********************************************************************

            Population analysis using the SCF Density.

 **********************************************************************

 Orbital symmetries:
       Occupied  (A) (A) (A) (A) (A) (A) (A) (A) (A) (A) (A) (A)
                 (A) (A) (A) (A) (A) (A) (A) (A) (A) (A) (A) (A)
                 (A) (A) (A) (A) (A) (A) (A) (A) (A) (A) (A) (A)
                 (A) (A) (A) (A) (A) (A) (A) (A) (A) (A) (A) (A)
                 (A) (A) (A) (A) (A) (A) (A) (A) (A) (A) (A) (A)
                 (A) (A) (A) (A) (A) (A) (A) (A) (A) (A) (A) (A)
                 (A) (A) (A) (A) (A) (A) (A) (A) (A) (A) (A) (A)
                 (A) (A) (A) (A) (A) (A) (A) (A) (A) (A) (A) (A)
                 (A) (A) (A) (A) (A)
       Virtual   (A) (A) (A) (A) (A) (A) (A) (A) (A) (A) (A) (A)
                 (A) (A) (A) (A) (A) (A) (A) (A) (A) (A) (A) (A)
                 (A) (A) (A) (A) (A) (A) (A) (A) (A) (A) (A) (A)
                 (A) (A) (A) (A) (A) (A) (A) (A) (A) (A) (A) (A)
                 (A) (A) (A) (A) (A) (A) (A) (A) (A) (A) (A) (A)
                 (A) (A) (A) (A) (A) (A) (A) (A) (A) (A) (A) (A)
                 (A) (A) (A) (A) (A) (A) (A) (A) (A) (A) (A) (A)
                 (A) (A) (A) (A) (A) (A) (A) (A) (A) (A) (A) (A)
                 (A) (A) (A) (A) (A) (A) (A) (A) (A) (A) (A) (A)
                 (A) (A) (A) (A) (A) (A) (A) (A) (A) (A) (A) (A)
                 (A) (A) (A) (A) (A) (A) (A) (A) (A) (A) (A) (A)
                 (A) (A) (A) (A) (A) (A) (A) (A) (A) (A) (A) (A)
                 (A) (A) (A) (A) (A) (A) (A) (A) (A) (A) (A) (A)
                 (A) (A) (A) (A) (A) (A) (A) (A) (A) (A) (A) (A)
                 (A) (A) (A) (A) (A) (A) (A) (A) (A) (A) (A) (A)
                 (A) (A) (A) (A) (A) (A) (A) (A) (A) (A) (A) (A)
                 (A) (A) (A) (A) (A) (A) (A) (A) (A) (A) (A) (A)
                 (A) (A) (A) (A) (A) (A) (A) (A) (A) (A) (A) (A)
                 (A) (A) (A) (A) (A) (A) (A) (A) (A) (A) (A) (A)
                 (A) (A) (A) (A) (A) (A) (A) (A) (A) (A) (A) (A)
                 (A) (A) (A) (A) (A) (A) (A) (A) (A) (A) (A) (A)
                 (A) (A) (A) (A) (A) (A) (A) (A) (A) (A) (A) (A)
                 (A) (A) (A) (A) (A) (A) (A) (A) (A) (A) (A) (A)
                 (A) (A) (A) (A) (A) (A) (A) (A) (A) (A) (A) (A)
                 (A) (A) (A) (A) (A) (A) (A) (A) (A) (A) (A) (A)
                 (A) (A) (A) (A) (A) (A) (A) (A) (A) (A) (A) (A)
                 (A) (A) (A) (A) (A) (A) (A) (A) (A) (A) (A) (A)
                 (A) (A) (A) (A) (A) (A) (A) (A) (A) (A) (A) (A)
                 (A) (A) (A) (A) (A) (A) (A) (A) (A) (A) (A) (A)
                 (A) (A) (A) (A) (A) (A) (A) (A) (A) (A) (A) (A)
                 (A) (A) (A) (A) (A) (A) (A) (A) (A) (A) (A) (A)
                 (A) (A) (A) (A) (A) (A) (A) (A) (A) (A) (A) (A)
                 (A) (A) (A) (A) (A) (A) (A) (A) (A) (A) (A) (A)
                 (A) (A) (A) (A) (A) (A) (A) (A) (A) (A) (A) (A)
                 (A) (A) (A) (A) (A) (A) (A) (A) (A) (A) (A) (A)
                 (A) (A) (A) (A) (A) (A) (A) (A) (A) (A) (A) (A)
                 (A) (A) (A) (A) (A) (A) (A) (A) (A) (A) (A) (A)
[...]
 -0.00004530,-0.00003150,0.00001183,0.00008866,0.00000057,-0.00000414,-
 0.00019339,-0.00019596,0.00011092,0.00029466,0.00004699,-0.00006143,-0
 .00019265,0.00021298,-0.00025882,0.00000140,0.00001191,0.00004831,0.00
 002120,0.00000388,0.00001146,0.00000030,-0.00000542,0.00000673,0.00002
 369,-0.00000312,-0.00003892,-0.00006360,-0.00004866,0.00005005,0.00005
 256,-0.00015538,-0.00027459,-0.00045708,0.00031351,-0.00055815,-0.0035
 4307,-0.00028500,0.00291072,0.00891139,-0.01248583,0.00704222,0.074897
 19,-0.27551438,0.10447239,-0.00048175,-0.00119834,0.00254396,0.0002939
 6,0.00275592,0.00230839,0.00024866,-0.00036371,0.00026977,-0.00010262,
 -0.00016104,0.00016801,0.00008515,0.00001577,-0.00015534,-0.00002918,0
 .00007793,-0.00000845,0.00001010,0.00011088,-0.00006760,-0.00002680,0.
 00002780,-0.00001726,0.00004094,0.00002754,-0.00000927,-0.00000150,0.0
 0000431,-0.00000515,-0.00000123,0.00000655,-0.00000035,0.00000410,-0.0
 0000095,0.00000054,-0.00000200,-0.00000400,0.00000402,-0.00000231,-0.0
 0000567,0.00000063,0.00000448,0.00000024,-0.00000007,0.00000445,0.0000
 0250,-0.00000040,-0.00000674,-0.00000162,0.00000315,0.00001030,-0.0000
 0446,-0.00000319,0.00000632,-0.00000256,0.00000304,0.00000814,-0.00000
 327,0.00001124,-0.00000296,-0.00000773,0.00000045,0.00004534,0.0000572
 2,0.00001717,0.00038505,-0.00074327,0.00031648,-0.00022867,0.00010393,
 -0.00154043,-0.08017151,0.28767442,0.00000640,0.00001117,-0.00000342,-
 0.00004371,0.00000308,-0.00000138,0.00000400,-0.00000943,0.00000612,0.
 00003773,-0.00000749,-0.00000280,-0.00002015,0.00001521,-0.00000557,0.
 00001917,0.00001022,-0.00001123,-0.00003804,-0.00000232,-0.00000385,0.
 00008395,0.00010553,-0.00000063,-0.00012868,-0.00005782,-0.00005511,0.
 00008272,-0.00026024,-0.00026041,0.00000240,0.00005007,0.00009727,-0.0
 0000941,0.00001137,0.00002638,0.00000071,0.00000677,0.00000608,-0.0000
 1314,-0.00003826,-0.00007272,0.00002991,0.00004852,0.00004045,-0.00003
 492,-0.00027165,-0.00064970,0.00020853,-0.00056193,-0.00071126,0.00168
 379,0.00290655,0.00484971,-0.00404765,0.00740444,0.00038783,-0.0326980
 7,0.10448344,-0.08418130,0.00033741,0.00218615,0.00353604,0.00003565,0
 .00230465,0.00693716,-0.00010383,0.00025462,0.00013934,0.00004633,0.00
 016025,0.00014231,0.00011652,-0.00006344,-0.00007335,-0.00014620,-0.00
 009490,-0.00012903,-0.00000503,-0.00006583,-0.00001331,0.00001166,-0.0
 0001811,-0.00000443,-0.00001809,-0.00000613,0.00001549,0.00000054,-0.0
 0000175,0.00000133,0.00000060,-0.00000357,-0.00000030,-0.00000178,0.00
 000058,0.00000011,0.00000109,0.00000182,-0.00000256,0.00000078,0.00000
 184,-0.00000058,-0.00000192,0.00000005,0.00000030,-0.00000179,-0.00000
 021,0.00000194,0.00000312,0.00000241,0.00000276,-0.00000392,-0.0000027
 7,-0.00000906,-0.00000280,0.00000313,0.00000296,-0.00000342,0.00001134
 ,0.00001732,0.00000123,0.00000038,-0.00000698,-0.00001977,0.00001705,0
 .00008953,-0.00017471,0.00033391,-0.00016536,0.00004726,-0.00155268,-0
 .00268034,0.03486632,-0.11527171,0.07664613,-0.00000690,-0.00000967,0.
 00000530,0.00006550,-0.00001438,0.00000480,-0.00000676,0.00002464,-0.0
 0001168,-0.00007263,-0.00001306,0.00000835,-0.00000496,-0.00002615,0.0
 0001330,-0.00000661,0.00003216,-0.00001940,0.00008368,-0.00011791,0.00
 005501,-0.00004718,0.00143164,-0.00064268,-0.00069440,-0.00040149,0.00
 019161,0.00045614,-0.00011154,0.00004198,-0.00000094,-0.00018782,0.000
 08258,-0.00005942,0.00006436,-0.00002784,-0.00010830,0.00000156,0.0000
 0069,0.00009996,-0.00003934,0.00001598,-0.00014701,0.00026259,-0.00011
 449,0.00072193,0.00027340,-0.00012857,-0.00052782,0.00259413,-0.001078
 74,-0.00019252,0.00094924,-0.00043157,-0.00425019,0.00193948,-0.000707
 68,-0.01452513,-0.02019482,0.00922307,-0.18688169,-0.13871379,0.063569
 50,0.01179042,0.00837215,-0.00383100,-0.00003930,-0.00158697,0.0006575
 2,-0.00421651,0.00635251,-0.00267591,-0.00408048,0.00006519,0.00244676
 ,-0.00419039,-0.00180112,-0.00165992,0.00132016,-0.00152710,0.00066038
 ,-0.00003158,0.00004110,-0.00002355,0.00005842,-0.00000037,0.00000068,
 -0.00000178,0.00000320,-0.00000044,-0.00000166,0.00000246,-0.00000218,
 0.00000470,-0.00000234,0.00000102,-0.00000290,-0.00000324,0.00000413,-
 0.00000308,-0.00000498,0.00000018,0.00000467,0.00000070,-0.00000045,-0
 .00000146,0.00000335,-0.00000139,-0.00003862,-0.00000638,0.00000461,0.
 00000490,-0.00001784,0.00000764,-0.00001313,0.00003269,-0.00001438,-0.
 00000877,-0.00000044,0.00000044,-0.00000530,0.00002566,-0.00001158,-0.
 00000574,-0.00002844,0.00001297,0.00003398,-0.00005315,0.00001355,-0.0
 0064341,-0.00082232,0.00037388,0.00110581,0.00008016,-0.00011166,0.205
 06479,0.00001362,0.00002290,-0.00000942,-0.00009337,0.00000888,-0.0000
 0067,0.00000811,-0.00002210,0.00001183,0.00008507,-0.00000221,0.000005
 99,-0.00003529,0.00002636,-0.00002720,0.00003615,0.00002827,-0.0000025
 6,-0.00010555,0.00003946,-0.00002914,0.00019250,-0.00034350,0.00011018
 ,-0.00004208,0.00014304,0.00002332,0.00006974,-0.00052227,0.00010405,0
 .00004671,0.00022945,-0.00015988,0.00005173,-0.00006974,0.00004825,0.0
 0010546,0.00001800,-0.00000802,-0.00016288,0.00001135,-0.00000586,0.00
 026076,-0.00031827,0.00014070,-0.00122453,-0.00027693,0.00021713,0.002
 67577,-0.00229120,0.00336928,0.00089686,-0.00029442,-0.00035865,0.0022
 3757,0.00179361,0.00262477,0.00716121,0.00971382,-0.00222149,-0.136025
 39,-0.19839468,0.07388114,-0.01846606,-0.01261422,0.00764264,-0.001100
 79,0.00178080,-0.00249921,0.00378533,-0.00093170,0.00296836,-0.0009418
 9,0.00039866,-0.00069222,-0.00215333,-0.00084407,-0.00164186,-0.000499
 12,0.00037167,-0.00039138,0.00003117,-0.00004502,0.00002106,-0.0000508
 7,-0.00002215,0.00000209,0.00000150,-0.00000361,0.00000344,0.00000068,
 -0.00000690,-0.00000021,-0.00000411,0.00000127,-0.00000018,0.00000237,
 0.00000367,-0.00000477,0.00000230,0.00000471,-0.00000090,-0.00000420,-
 0.00000001,0.00000040,-0.00000403,-0.00000061,0.00000250,0.00001890,0.
 00001087,0.00000294,-0.00002024,0.00001988,0.00001895,0.00001093,-0.00
 002745,0.00001278,0.00000639,0.00000094,-0.00000061,0.00001185,-0.0000
 3608,0.00000976,-0.00001943,0.00000824,0.00000008,-0.00009496,-0.00011
 245,-0.00027207,0.00044827,0.00031179,-0.00014609,-0.00025398,-0.00020
 394,-0.00204516,0.14314028,0.20243271,-0.00000593,-0.00000793,0.000008
 63,0.00004088,-0.00000309,0.00000053,-0.00000336,0.00001050,-0.0000021
 2,-0.00003684,0.00000915,0.00001421,0.00001476,-0.00002517,-0.00001760
 ,-0.00001429,-0.00000573,0.00001862,0.00004552,-0.00002770,-0.00001608
 ,-0.00008582,0.00009225,-0.00013206,0.00003027,0.00003019,0.00018344,-
 0.00004193,0.00010610,-0.00033559,-0.00002226,-0.00015775,-0.00005924,
 -0.00002234,0.00004837,0.00001971,-0.00004536,-0.00000747,0.00000573,0
 .00007134,-0.00000602,-0.00000164,-0.00011423,0.00014077,-0.00005669,0
 .00053709,0.00019742,0.00008085,-0.00110934,0.00337160,0.00388585,-0.0
 0041168,-0.00035838,-0.00091043,-0.00083903,0.00262840,0.00661273,-0.0
 0292534,-0.00186839,0.00578488,0.06237001,0.07391530,-0.06967311,0.008
 09937,0.00729817,0.00072424,0.00043898,-0.00249236,-0.00277610,-0.0015
 4220,0.00293190,0.00458165,0.00202324,-0.00054894,-0.00303988,-0.00062
 851,-0.00180291,-0.00171497,0.00019702,-0.00037732,-0.00035672,-0.0000
 1456,0.00001917,-0.00000755,0.00002237,-0.00000070,-0.00002383,0.00000
 006,0.00000210,-0.00000387,-0.00000103,0.00000089,-0.00000080,0.000001
 77,-0.00000011,0.00000084,-0.00000075,-0.00000153,0.00000038,-0.000001
 45,-0.00000307,-0.00000055,0.00000182,0.00000024,0.00000048,0.00000221
 ,0.00000211,0.00000339,-0.00000717,0.00000419,0.00001881,0.00000964,0.
 00002030,0.00005609,-0.00000440,0.00001268,-0.00000349,-0.00000270,-0.
 00000065,-0.00000040,-0.00000537,0.00000943,-0.00001819,0.00000889,0.0
 0000019,0.00000769,0.00003215,-0.00027269,-0.00060715,-0.00019068,-0.0
 0012953,0.00005669,0.00003541,-0.00204973,-0.00390436,-0.06590613,-0.0
 8070955,0.06158662,-0.00029267,0.00030000,-0.00013640,-0.00045889,-0.0
 0137382,0.00067259,0.00011587,-0.00025448,0.00012716,-0.00491764,0.001
 71128,-0.00056331,-0.00055416,0.00054837,-0.00027741,-0.00057089,0.002
 84974,-0.00125905,0.01157978,0.00813642,-0.00417659,-0.00061219,-0.000
 96294,0.00037857,-0.00106672,0.00092610,-0.00044461,-0.00038449,0.0001
 2130,-0.00004918,0.00008826,0.00008341,-0.00004338,-0.00008752,0.00003
 894,-0.00001528,0.00009557,-0.00002377,0.00001043,-0.00001287,0.000040
 99,-0.00001833,-0.00000507,-0.00001444,0.00000492,-0.00003568,0.000054
 14,-0.00001938,0.00004162,-0.00005040,0.00001957,-0.00002930,0.0000051
 5,-0.00000161,0.00001869,-0.00002437,0.00000994,0.00001533,0.00001162,
 -0.00000533,0.00001804,0.00000191,-0.00000122,-0.00008677,0.00002857,-
 0.00000831,0.00014985,-0.00023795,0.00010670,-0.00020020,0.00021273,-0
 .00009107,0.00004592,-0.00005974,0.00011289,0.00004536,-0.00012659,-0.
 00003324,0.00053989,-0.00049704,0.00022540,-0.14200748,-0.11541385,0.0
 5952736,-0.01337347,-0.02373095,0.01210805,0.00002317,-0.00001174,0.00
 002155,0.00002142,-0.00002598,-0.00000481,-0.00009973,-0.00009148,0.00
 004426,-0.00000687,0.00001150,-0.00005222,-0.00000179,0.00004711,0.000
 02182,-0.00002844,0.00003744,-0.00001811,0.00000143,-0.00007761,0.0000
 1953,0.00046858,0.00052728,-0.00026130,-0.00394349,0.00088029,-0.00058
 646,0.00003175,-0.00008025,0.00003285,0.00000435,0.00001244,-0.0000055
 7,0.00001184,0.00000302,-0.00000149,0.00000576,-0.00000036,0.00000043,
 0.00000475,0.00000372,-0.00000182,0.00000515,-0.00000154,0.00000081,0.
 00000376,-0.00000470,0.00000200,-0.00000418,0.00000493,-0.00000212,0.1
 5443203,0.00008254,0.00000233,-0.00017658,-0.00027932,0.00014712,-0.00
 006150,-0.00000262,-0.00009145,0.00010646,0.00170653,0.00273848,0.0025
 9913,0.00066895,0.00004227,-0.00043673,0.00349782,-0.00221510,0.003804
 21,-0.01590263,-0.01286095,0.00832632,-0.00248967,-0.00115691,-0.00101
 386,0.00011904,-0.00011832,-0.00012398,0.00032271,0.00037722,-0.000360
 31,0.00001969,0.00001554,-0.00001050,0.00002399,-0.00003174,0.00001465
 ,-0.00004574,0.00001120,-0.00002888,0.00000740,-0.00001727,0.00000350,
 -0.00001067,0.00002190,0.00000732,0.00000605,-0.00006460,-0.00000509,-
 0.00000835,0.00000206,-0.00001265,0.00001052,0.00000436,-0.00000210,-0
 .00000752,0.00000941,0.00000394,0.00000335,0.00000302,-0.00001871,-0.0
 0004455,0.00000431,0.00000874,0.00008275,0.00005198,0.00003353,-0.0002
 4126,0.00023598,-0.00006750,-0.00015217,-0.00018221,0.00017374,0.00003
 743,0.00005851,-0.00008652,0.00002459,0.00009216,-0.00001895,0.0003851
 3,0.00052589,-0.00025364,-0.11694051,-0.21173044,0.08911466,0.00358798
 ,0.00507845,-0.00025224,0.00002228,-0.00000157,0.00000170,-0.00003195,
 -0.00003927,0.00002620,-0.00000303,0.00000155,-0.00002534,0.00000804,0
 .00002076,-0.00001377,0.00003243,0.00001869,-0.00001335,-0.00001805,-0
 .00000336,0.00001345,-0.00009955,-0.00016962,-0.00031141,-0.00097068,-
 0.00067811,0.00055192,0.00051413,0.00135719,0.00018519,0.00005861,0.00
 009262,0.00000514,0.00000035,-0.00000592,0.00001334,-0.00000766,-0.000
 00158,0.00000295,-0.00000700,-0.00000308,0.00000020,-0.00000011,-0.000
 00236,0.00000236,-0.00000427,0.00000161,-0.00000054,-0.00000475,0.0000
 0464,-0.00000031,-0.00000429,-0.00000078,0.00000389,0.12628677,0.21866
 739,-0.00003789,-0.00017193,-0.00026971,0.00012998,-0.00005597,0.00001
 174,0.00000237,0.00010759,0.00007060,-0.00058866,0.00257086,0.00678307
 ,-0.00035847,-0.00041516,-0.00061249,-0.00158102,0.00379523,0.00378293
 ,0.00784430,0.00765371,-0.00063335,0.00100744,-0.00100337,-0.00270688,
 -0.00012871,0.00002841,-0.00026253,-0.00007477,-0.00037659,-0.00014128
 ,-0.00001385,-0.00001051,0.00001112,-0.00003941,0.00001965,-0.00002428
 ,0.00002336,-0.00002953,-0.00003291,-0.00000306,0.00000439,-0.00000631
 ,0.00000873,0.00000454,0.00003369,0.00000141,-0.00000723,-0.00007271,-
 0.00000119,-0.00000239,-0.00001880,-0.00000227,-0.00000385,-0.00000058
 ,0.00000153,0.00000579,0.00001410,-0.00000504,-0.00001970,-0.00002422,
 0.00002324,0.00000291,0.00001606,-0.00003767,0.00002112,0.00009981,0.0
 0011921,-0.00006155,0.00008222,0.00002919,0.00016639,0.00009249,0.0000
 0728,-0.00005108,0.00001749,-0.00002063,-0.00005939,-0.00002715,-0.000
 11687,-0.00032472,0.00014708,0.06028047,0.08931335,-0.08270229,-0.0014
 0699,0.00030606,0.00461501,0.00005678,0.00005272,-0.00001461,-0.000052
 66,-0.00002720,0.00002255,0.00000336,-0.00002336,-0.00003835,-0.000035
 14,-0.00001148,0.00000188,0.00001248,-0.00001193,0.00000048,0.00000988
 ,0.00001399,0.00001700,0.00003325,-0.00030690,-0.00065039,0.00048884,0
 .00052279,0.00016299,-0.00040547,0.00007582,0.00150336,-0.00003119,-0.
 00001092,0.00009645,-0.00000057,0.00000983,0.00001746,0.00000474,0.000
 00287,0.00000270,0.00000380,0.00000004,-0.00000359,-0.00000052,0.00000
 245,0.00000216,0.00000213,-0.00000072,0.00000023,0.00000246,-0.0000006
 4,0.00000346,0.00000381,0.00000463,0.00000439,-0.06515059,-0.09940028,
 0.07435776,-0.00002082,-0.00013212,0.00004371,0.00037530,0.00181701,-0
 .00093195,-0.00336837,-0.00133845,0.00075516,0.01157580,-0.01430766,0.
 00690434,-0.00193973,-0.00263726,0.00141914,-0.00092998,-0.00068079,0.
 00035063,-0.00525547,-0.00050322,0.00047241,0.00084039,0.00127930,-0.0
 0060697,-0.00045670,-0.00012315,0.00007117,0.00032905,-0.00009537,0.00
 003567,-0.00006730,-0.00004182,0.00001869,-0.00004384,0.00002328,-0.00
 001082,-0.00001897,-0.00000278,0.00000238,-0.00000145,-0.00001643,0.00
 000712,0.00000881,-0.00000776,0.00000269,0.00003881,-0.00002910,0.0000
 1357,-0.00003089,0.00003909,-0.00001609,0.00001840,-0.00000716,0.00000
 333,-0.00001404,0.00001605,-0.00000789,-0.00001198,-0.00001198,0.00000
 651,-0.00000443,-0.00000348,0.00000119,0.00005030,-0.00002596,0.000010
 56,-0.00011482,0.00010697,-0.00004575,0.00023515,-0.00012455,0.0000532
 1,-0.00005126,0.00003520,-0.00008276,-0.00004981,0.00008507,0.00003018
 ,-0.00079427,0.00027558,-0.00012122,-0.00889314,0.02648092,-0.01284184
 ,-0.09866969,0.09338725,-0.04476840,0.00002881,0.00005650,-0.00007304,
 0.00002249,0.00008516,0.00000600,0.00000455,0.00001868,-0.00000902,-0.
 00158306,0.00009837,-0.00036184,-0.00168860,0.00033509,0.00023151,0.00
 002565,-0.00032560,0.00014902,0.00050392,-0.00084185,0.00039216,0.0000
 1596,0.00006870,-0.00004704,-0.00000196,0.00000480,-0.00000343,0.00000
 053,0.00001621,-0.00000681,-0.00000610,-0.00001096,0.00000462,-0.00000
 134,-0.00000179,0.00000079,-0.00000205,-0.00000052,0.00000038,-0.00000
 538,-0.00000171,0.00000069,-0.00000249,0.00000037,-0.00000004,-0.00000
 221,0.00000225,-0.00000115,0.00000571,-0.00000403,0.00000201,0.0010123
 7,-0.00023272,-0.00000741,0.10893814,-0.00013426,-0.00014084,-0.000126
 48,0.00064687,-0.00013816,-0.00096061,0.00135230,-0.00039991,0.0000073
 3,0.01189117,-0.01305559,0.00797264,-0.00329031,-0.00106404,0.00285154
 ,-0.00106439,0.00000718,-0.00023942,0.00015178,0.00320656,0.00203352,-
 0.00043047,0.00009994,0.00052373,0.00037730,0.00008430,-0.00004091,-0.
 00029102,0.00005626,-0.00005084,0.00005785,0.00003924,-0.00002008,0.00
 000837,-0.00002882,-0.00000741,0.00002629,0.00000722,0.00000568,-0.000
 00938,0.00001119,-0.00001252,-0.00000610,-0.00000637,-0.00000027,-0.00
 002838,0.00003587,-0.00000168,0.00002512,-0.00003540,0.00001555,-0.000
 01802,0.00000356,-0.00000259,0.00001024,-0.00001767,0.00000457,0.00001
 362,0.00001022,-0.00000335,0.00000465,0.00000374,-0.00000606,-0.000037
 42,0.00001999,0.00000054,0.00008209,-0.00011210,0.00004990,-0.00007341
 ,0.00007999,-0.00006717,0.00000781,-0.00001675,0.00002118,0.00002880,-
 0.00005925,-0.00002281,0.00012248,-0.00006775,-0.00015042,-0.00088651,
 0.00087239,0.00069244,0.09279245,-0.25260853,0.10754259,0.00007905,0.0
 0007263,-0.00010473,-0.00004600,0.00002249,0.00006026,-0.00012530,0.00
 002222,-0.00000567,-0.00058393,0.00008663,-0.00067377,0.00097946,0.000
 42643,0.00033482,0.00027630,0.00057939,-0.00046538,0.00060076,-0.00083
 046,0.00022949,0.00003878,-0.00014423,-0.00024905,-0.00001065,-0.00000
 961,0.00001129,-0.00000300,-0.00000342,0.00001320,-0.00000061,0.000006
 49,-0.00000133,0.00000265,0.00000306,0.00000052,0.00000343,0.00000034,
 0.00000148,0.00000322,0.00000237,-0.00000090,0.00000309,-0.00000053,0.
 00000126,0.00000170,-0.00000304,0.00000119,-0.00000367,0.00000401,0.00
 000144,0.00017884,-0.00021200,-0.00229875,-0.10272363,0.26319075,0.000
 04312,-0.00012564,-0.00031458,-0.00031920,-0.00099269,-0.00159170,-0.0
 0061979,0.00010523,-0.00024148,-0.00606741,0.00841098,-0.00046529,0.00
 174061,0.00282204,0.00315995,0.00054254,-0.00025054,-0.00041528,0.0002
 3985,0.00198838,0.00632626,0.00017868,0.00048145,0.00092772,-0.0001757
 6,-0.00003558,0.00000829,0.00012994,-0.00004859,-0.00003749,-0.0000249
 9,-0.00002109,0.00000055,-0.00000354,-0.00000442,-0.00003426,-0.000011
 75,0.00000447,0.00001476,0.00000376,-0.00001229,-0.00001072,0.00000253
 ,-0.00000063,-0.00000724,0.00001330,-0.00000120,0.00003401,-0.00001074
 ,0.00001554,-0.00000626,0.00000786,-0.00000308,-0.00000173,-0.00000459
 ,0.00000471,-0.00000847,-0.00000578,-0.00000275,0.00000491,-0.00000208
 ,-0.00000544,-0.00000686,0.00001655,-0.00000067,0.00001672,-0.00003788
 ,0.00005086,-0.00001855,0.00002268,-0.00006403,-0.00004188,-0.00002982
 ,0.00001360,-0.00005091,0.00001555,-0.00001556,-0.00001477,-0.00005987
 ,-0.00014944,-0.00029815,0.00062696,0.00020750,0.00215077,-0.04444259,
 0.10761545,-0.08334824,0.00011499,0.00009297,-0.00001324,-0.00013410,-
 0.00013424,0.00003647,0.00006303,-0.00000866,0.00000645,-0.00152826,0.
 00011547,0.00016090,0.00146282,-0.00046914,-0.00018402,-0.00014394,-0.
 00046799,-0.00014126,-0.00031235,0.00026918,-0.00044644,-0.00003024,-0
 .00024347,-0.00052480,0.00000744,0.00001355,0.00001325,0.00000104,0.00
 001468,0.00001900,0.,-0.00000128,0.00000407,-0.00000113,0.00000046,0.0
 0000379,-0.00000144,0.00000137,0.00000285,-0.00000155,-0.00000089,0.00
 000068,-0.00000132,0.00000120,0.00000167,-0.00000067,0.00000112,-0.000
 00095,0.00000154,0.00000079,0.00000595,-0.00021863,-0.00230780,-0.0037
 2784,0.04895464,-0.11686392,0.07905339\\0.00001204,0.00001763,0.000020
 69,-0.00000761,0.00000247,-0.00002191,0.00000915,-0.00001442,0.0000194
 1,0.00001030,-0.00001948,-0.00000186,-0.00001545,0.00001127,-0.0000031
 2,0.00001409,-0.00001163,0.00000831,-0.00001814,0.00001551,-0.00000803
 ,0.00004262,-0.00002170,0.00002042,-0.00001824,-0.00000852,0.00000359,
 0.00001442,0.00003706,-0.00000644,-0.00003180,-0.00001224,0.00000608,-
 0.00000250,-0.00000682,-0.00000001,-0.00001759,-0.00000152,0.00000115,
 0.00001697,0.00000370,-0.00000122,-0.00000015,-0.00000903,0.00000167,0
 .00001887,-0.00003936,0.00001972,0.00000320,0.00004314,-0.00001815,0.0
 0000402,0.00000213,0.00000049,-0.00000481,-0.00000532,0.00000213,0.000
 00103,0.00000918,-0.00000430,0.00001714,-0.00001998,0.00000394,-0.0000
 6976,0.00000667,0.00000148,0.00005108,-0.00000665,-0.00001262,0.000035
 85,-0.00003649,0.00005148,-0.00001144,0.00001111,-0.00003709,-0.000006
 75,0.00001520,0.00000902,-0.00004547,0.00002264,-0.00003450,0.00001085
 ,-0.00001552,0.00001003,-0.00003205,-0.00000433,0.00000431,-0.00000793
 ,0.00000134,0.00000021,-0.00000816,0.00000279,0.00000120,-0.00000357,-
 0.00001113,-0.00001210,0.00000575,0.00000444,0.00000287,-0.00000150,0.
 00000297,-0.00000183,0.00000470,-0.00000056,-0.00000180,0.00001777,0.0
 0000016,-0.00000243,-0.00000144,0.00000120,-0.00000172,0.00000921,0.00
 001028,0.,-0.00000543,0.00000398,-0.00000437,0.00000206,0.00000107,-0.
 00000050,-0.00000510,-0.00000184,0.00000095,0.00000571,0.00000205,-0.0
 0000297,0.00000261,0.00000568,0.00000007,-0.00000222,0.00000372,-0.000
 00154,0.00000081,-0.00000033,-0.00000047,0.00000509,0.00000070,-0.0000
 0233,0.00000071,0.00000193,-0.00000516,0.00000107,0.00000684,-0.000002
 76\\\@
 The archive entry for this job was punched.


 IT MATTERS NOT HOW DEEP YOU PLOW,
 BUT HOW LONG YOU STAY IN THE FURROW.
 Job cpu time:       1 days 11 hours 55 minutes 22.6 seconds.
 Elapsed time:       0 days  1 hours 31 minutes 16.1 seconds.
 File lengths (MBytes):  RWF=   2305 Int=      0 D2E=      0 Chk=     59 Scr=      1
 Normal termination of Gaussian 16 at Tue Dec  5 16:06:10 2023.
