 Entering Gaussian System, Link 0=g16
 Input=/home/exlonk/in_progress/3342.inp
 Output=/home/exlonk/in_progress/3342.log
 Initial command:
 /opt/gaussian/g16-c01/g16/l1.exe "/lustre/tmp/slurm/2182827/Gau-537715.inp" -scrdir="/lustre/tmp/slurm/2182827/"
 Default CPUs for threads: 0-9,11-12,20,24-33,36-37,44
 Default is to use a total of  26 processors:
                               26 via shared-memory
                                1 via Linda
 Entering Link 1 = /opt/gaussian/g16-c01/g16/l1.exe PID=    537716.
  
 Copyright (c) 1988-2019, Gaussian, Inc.  All Rights Reserved.
  
 This is part of the Gaussian(R) 16 program.  It is based on
 the Gaussian(R) 09 system (copyright 2009, Gaussian, Inc.),
 the Gaussian(R) 03 system (copyright 2003, Gaussian, Inc.),
 the Gaussian(R) 98 system (copyright 1998, Gaussian, Inc.),
 the Gaussian(R) 94 system (copyright 1995, Gaussian, Inc.),
 the Gaussian 92(TM) system (copyright 1992, Gaussian, Inc.),
 the Gaussian 90(TM) system (copyright 1990, Gaussian, Inc.),
 the Gaussian 88(TM) system (copyright 1988, Gaussian, Inc.),
 the Gaussian 86(TM) system (copyright 1986, Carnegie Mellon
 University), and the Gaussian 82(TM) system (copyright 1983,
 Carnegie Mellon University). Gaussian is a federally registered
 trademark of Gaussian, Inc.
  
 This software contains proprietary and confidential information,
 including trade secrets, belonging to Gaussian, Inc.
  
 This software is provided under written license and may be
 used, copied, transmitted, or stored only in accord with that
 written license.
  
 The following legend is applicable only to US Government
 contracts under FAR:
  
                    RESTRICTED RIGHTS LEGEND
  
 Use, reproduction and disclosure by the US Government is
 subject to restrictions as set forth in subparagraphs (a)
 and (c) of the Commercial Computer Software - Restricted
 Rights clause in FAR 52.227-19.
  
 Gaussian, Inc.
 340 Quinnipiac St., Bldg. 40, Wallingford CT 06492
  
  
 ---------------------------------------------------------------
 Warning -- This program may not be used in any manner that
 competes with the business of Gaussian, Inc. or will provide
 assistance to any competitor of Gaussian, Inc.  The licensee
 of this program is prohibited from giving any competitor of
 Gaussian, Inc. access to this program.  By using this program,
 the user acknowledges that Gaussian, Inc. is engaged in the
 business of creating and licensing software in the field of
 computational chemistry and represents and warrants to the
 licensee that it is not a competitor of Gaussian, Inc. and that
 it will not use this program in any manner prohibited above.
 ---------------------------------------------------------------
  

 Cite this work as:
 Gaussian 16, Revision C.01,
 M. J. Frisch, G. W. Trucks, H. B. Schlegel, G. E. Scuseria, 
 M. A. Robb, J. R. Cheeseman, G. Scalmani, V. Barone, 
 G. A. Petersson, H. Nakatsuji, X. Li, M. Caricato, A. V. Marenich, 
 J. Bloino, B. G. Janesko, R. Gomperts, B. Mennucci, H. P. Hratchian, 
 J. V. Ortiz, A. F. Izmaylov, J. L. Sonnenberg, D. Williams-Young, 
 F. Ding, F. Lipparini, F. Egidi, J. Goings, B. Peng, A. Petrone, 
 T. Henderson, D. Ranasinghe, V. G. Zakrzewski, J. Gao, N. Rega, 
 G. Zheng, W. Liang, M. Hada, M. Ehara, K. Toyota, R. Fukuda, 
 J. Hasegawa, M. Ishida, T. Nakajima, Y. Honda, O. Kitao, H. Nakai, 
 T. Vreven, K. Throssell, J. A. Montgomery, Jr., J. E. Peralta, 
 F. Ogliaro, M. J. Bearpark, J. J. Heyd, E. N. Brothers, K. N. Kudin, 
 V. N. Staroverov, T. A. Keith, R. Kobayashi, J. Normand, 
 K. Raghavachari, A. P. Rendell, J. C. Burant, S. S. Iyengar, 
 J. Tomasi, M. Cossi, J. M. Millam, M. Klene, C. Adamo, R. Cammi, 
 J. W. Ochterski, R. L. Martin, K. Morokuma, O. Farkas, 
 J. B. Foresman, and D. J. Fox, Gaussian, Inc., Wallingford CT, 2019.
 
 ******************************************
 Gaussian 16:  EM64L-G16RevC.01  3-Jul-2019
                 5-Dec-2023 
 ******************************************
 %nproc=26
 Will use up to   26 processors via shared memory.
 %mem=16GB
 %chk=/home/exlonk/in_progress/3342.chk
 ------------------------------
 #p MN15/6-311++G(d,p) opt freq
 ------------------------------
 1/18=20,19=15,26=3,38=1/1,3;
 2/9=110,12=2,17=6,18=5,40=1/2;
 3/5=4,6=6,7=1111,11=2,25=1,30=1,71=1,74=-73/1,2,3;
 4//1;
 5/5=2,38=5/2;
 6/7=2,8=2,9=2,10=2,28=1/1;
 7//1,2,3,16;
 1/18=20,19=15,26=3/3(2);
 2/9=110/2;
 99//99;
 2/9=110/2;
 3/5=4,6=6,7=1111,11=2,25=1,30=1,71=1,74=-73/1,2,3;
 4/5=5,16=3,69=1/1;
 5/5=2,38=5/2;
 7//1,2,3,16;
 1/18=20,19=15,26=3/3(-5);
 2/9=110/2;
 6/7=2,8=2,9=2,10=2,19=2,28=1/1;
 99/9=1/99;
 Leave Link    1 at Tue Dec  5 11:26:18 2023, MaxMem=  2147483648 cpu:               3.6 elap:               0.2
 (Enter /opt/gaussian/g16-c01/g16/l101.exe)
 ---------------
 name file: 3342
 ---------------
 Symbolic Z-matrix:
 Charge =  0 Multiplicity = 1
 O                    -2.7305   -0.7609    1.4925 
 N                    -3.4491    0.2131   -0.4853 
 C                     1.2257    0.5183    0.0741 
 C                     2.4319   -0.2166   -0.04 
 C                    -4.7938   -0.3158   -0.454 
 C                    -0.0046   -0.1619    0.2291 
 C                     1.2527    1.9319    0.0329 
 C                    -1.1897    0.5798    0.3407 
 C                     2.4049   -1.6302    0.0013 
 C                     3.6623    0.4636   -0.195 
 C                    -0.0118   -1.5627    0.2678 
 C                    -2.4974   -0.0493    0.5031 
 C                     0.0504    2.645     0.1472 
 C                    -1.161     1.9728    0.2998 
 C                     1.1767   -2.2869    0.1554 
 C                     2.481     2.5886   -0.1213 
 C                    -4.7336   -1.8433   -0.5578 
 C                    -5.4669    0.0888    0.8626 
 C                    -5.5899    0.2536   -1.6339 
 C                     3.6695    1.8644   -0.2338 
 C                     3.6072   -2.3432   -0.113 
 C                     4.8473   -0.2781   -0.3066 
 C                     4.8186   -1.6711   -0.2657 
 H                    -3.1777    0.7895   -1.2775 
 H                    -0.9312   -2.1329    0.3713 
 H                     0.0471    3.7326    0.1195 
 H                    -2.0749    2.5551    0.392 
 H                     1.1315   -3.3738    0.1867 
 H                     2.5264    3.6753   -0.1557 
 H                    -5.7418   -2.2702   -0.6127 
 H                    -4.1918   -2.1554   -1.4586 
 H                    -4.2356   -2.3099    0.2978 
 H                    -6.533    -0.1679    0.845 
 H                    -5.3919    1.1699    1.0297 
 H                    -5.0465   -0.4113    1.7395 
 H                    -6.6168   -0.128    -1.6455 
 H                    -5.123    -0.0101   -2.5901 
 H                    -5.6377    1.3479   -1.5866 
 H                     4.604     2.4093   -0.3523 
 H                     3.6109   -3.4308   -0.084 
 H                     5.8054    0.2233   -0.4265 
 H                     5.7432   -2.2346   -0.3532 
 
 ITRead=  0  0  0  0  0  0  0  0  0  0  0  0  0  0  0  0  0  0  0  0
 ITRead=  0  0  0  0  0  0  0  0  0  0  0  0  0  0  0  0  0  0  0  0
 ITRead=  0  0
 MicOpt= -1 -1 -1 -1 -1 -1 -1 -1 -1 -1 -1 -1 -1 -1 -1 -1 -1 -1 -1 -1
 MicOpt= -1 -1 -1 -1 -1 -1 -1 -1 -1 -1 -1 -1 -1 -1 -1 -1 -1 -1 -1 -1
 MicOpt= -1 -1
 NAtoms=     42 NQM=       42 NQMF=       0 NMMI=      0 NMMIF=      0
                NMic=       0 NMicF=      0.
                    Isotopes and Nuclear Properties:
 (Nuclear quadrupole moments (NQMom) in fm**2, nuclear magnetic moments (NMagM)
  in nuclear magnetons)

  Atom         1           2           3           4           5           6           7           8           9          10
 IAtWgt=          16          14          12          12          12          12          12          12          12          12
 AtmWgt=  15.9949146  14.0030740  12.0000000  12.0000000  12.0000000  12.0000000  12.0000000  12.0000000  12.0000000  12.0000000
 NucSpn=           0           2           0           0           0           0           0           0           0           0
 AtZEff=  -0.0000000  -0.0000000  -0.0000000  -0.0000000  -0.0000000  -0.0000000  -0.0000000  -0.0000000  -0.0000000  -0.0000000
 NQMom=    0.0000000   2.0440000   0.0000000   0.0000000   0.0000000   0.0000000   0.0000000   0.0000000   0.0000000   0.0000000
 NMagM=    0.0000000   0.4037610   0.0000000   0.0000000   0.0000000   0.0000000   0.0000000   0.0000000   0.0000000   0.0000000
 AtZNuc=   8.0000000   7.0000000   6.0000000   6.0000000   6.0000000   6.0000000   6.0000000   6.0000000   6.0000000   6.0000000

  Atom        11          12          13          14          15          16          17          18          19          20
 IAtWgt=          12          12          12          12          12          12          12          12          12          12
 AtmWgt=  12.0000000  12.0000000  12.0000000  12.0000000  12.0000000  12.0000000  12.0000000  12.0000000  12.0000000  12.0000000
 NucSpn=           0           0           0           0           0           0           0           0           0           0
 AtZEff=  -0.0000000  -0.0000000  -0.0000000  -0.0000000  -0.0000000  -0.0000000  -0.0000000  -0.0000000  -0.0000000  -0.0000000
 NQMom=    0.0000000   0.0000000   0.0000000   0.0000000   0.0000000   0.0000000   0.0000000   0.0000000   0.0000000   0.0000000
 NMagM=    0.0000000   0.0000000   0.0000000   0.0000000   0.0000000   0.0000000   0.0000000   0.0000000   0.0000000   0.0000000
 AtZNuc=   6.0000000   6.0000000   6.0000000   6.0000000   6.0000000   6.0000000   6.0000000   6.0000000   6.0000000   6.0000000

  Atom        21          22          23          24          25          26          27          28          29          30
 IAtWgt=          12          12          12           1           1           1           1           1           1           1
 AtmWgt=  12.0000000  12.0000000  12.0000000   1.0078250   1.0078250   1.0078250   1.0078250   1.0078250   1.0078250   1.0078250
 NucSpn=           0           0           0           1           1           1           1           1           1           1
 AtZEff=  -0.0000000  -0.0000000  -0.0000000  -0.0000000  -0.0000000  -0.0000000  -0.0000000  -0.0000000  -0.0000000  -0.0000000
 NQMom=    0.0000000   0.0000000   0.0000000   0.0000000   0.0000000   0.0000000   0.0000000   0.0000000   0.0000000   0.0000000
 NMagM=    0.0000000   0.0000000   0.0000000   2.7928460   2.7928460   2.7928460   2.7928460   2.7928460   2.7928460   2.7928460
 AtZNuc=   6.0000000   6.0000000   6.0000000   1.0000000   1.0000000   1.0000000   1.0000000   1.0000000   1.0000000   1.0000000

  Atom        31          32          33          34          35          36          37          38          39          40
 IAtWgt=           1           1           1           1           1           1           1           1           1           1
 AtmWgt=   1.0078250   1.0078250   1.0078250   1.0078250   1.0078250   1.0078250   1.0078250   1.0078250   1.0078250   1.0078250
 NucSpn=           1           1           1           1           1           1           1           1           1           1
 AtZEff=  -0.0000000  -0.0000000  -0.0000000  -0.0000000  -0.0000000  -0.0000000  -0.0000000  -0.0000000  -0.0000000  -0.0000000
 NQMom=    0.0000000   0.0000000   0.0000000   0.0000000   0.0000000   0.0000000   0.0000000   0.0000000   0.0000000   0.0000000
 NMagM=    2.7928460   2.7928460   2.7928460   2.7928460   2.7928460   2.7928460   2.7928460   2.7928460   2.7928460   2.7928460
 AtZNuc=   1.0000000   1.0000000   1.0000000   1.0000000   1.0000000   1.0000000   1.0000000   1.0000000   1.0000000   1.0000000

  Atom        41          42
 IAtWgt=           1           1
 AtmWgt=   1.0078250   1.0078250
 NucSpn=           1           1
 AtZEff=  -0.0000000  -0.0000000
 NQMom=    0.0000000   0.0000000
 NMagM=    2.7928460   2.7928460
 AtZNuc=   1.0000000   1.0000000
 Leave Link  101 at Tue Dec  5 11:26:18 2023, MaxMem=  2147483648 cpu:               8.7 elap:               0.4
 (Enter /opt/gaussian/g16-c01/g16/l103.exe)

 GradGradGradGradGradGradGradGradGradGradGradGradGradGradGradGradGradGrad
 Berny optimization.
 Initialization pass.
                           ----------------------------
                           !    Initial Parameters    !
                           ! (Angstroms and Degrees)  !
 --------------------------                            --------------------------
 ! Name  Definition              Value          Derivative Info.                !
 --------------------------------------------------------------------------------
 ! R1    R(1,12)                 1.2408         estimate D2E/DX2                !
 ! R2    R(2,5)                  1.4453         estimate D2E/DX2                !
 ! R3    R(2,12)                 1.397          estimate D2E/DX2                !
 ! R4    R(2,24)                 1.0166         estimate D2E/DX2                !
 ! R5    R(3,4)                  1.417          estimate D2E/DX2                !
 ! R6    R(3,6)                  1.4143         estimate D2E/DX2                !
 ! R7    R(3,7)                  1.4145         estimate D2E/DX2                !
 ! R8    R(4,9)                  1.4145         estimate D2E/DX2                !
 ! R9    R(4,10)                 1.4144         estimate D2E/DX2                !
 ! R10   R(5,17)                 1.5322         estimate D2E/DX2                !
 ! R11   R(5,18)                 1.533          estimate D2E/DX2                !
 ! R12   R(5,19)                 1.533          estimate D2E/DX2                !
 ! R13   R(6,8)                  1.4025         estimate D2E/DX2                !
 ! R14   R(6,11)                 1.4014         estimate D2E/DX2                !
 ! R15   R(7,13)                 1.4025         estimate D2E/DX2                !
 ! R16   R(7,16)                 1.4013         estimate D2E/DX2                !
 ! R17   R(8,12)                 1.4602         estimate D2E/DX2                !
 ! R18   R(8,14)                 1.3939         estimate D2E/DX2                !
 ! R19   R(9,15)                 1.4012         estimate D2E/DX2                !
 ! R20   R(9,21)                 1.4025         estimate D2E/DX2                !
 ! R21   R(10,20)                1.4014         estimate D2E/DX2                !
 ! R22   R(10,22)                1.4024         estimate D2E/DX2                !
 ! R23   R(11,15)                1.3963         estimate D2E/DX2                !
 ! R24   R(11,25)                1.0868         estimate D2E/DX2                !
 ! R25   R(13,14)                1.3938         estimate D2E/DX2                !
 ! R26   R(13,26)                1.088          estimate D2E/DX2                !
 ! R27   R(14,27)                1.0876         estimate D2E/DX2                !
 ! R28   R(15,28)                1.0883         estimate D2E/DX2                !
 ! R29   R(16,20)                1.3963         estimate D2E/DX2                !
 ! R30   R(16,29)                1.0882         estimate D2E/DX2                !
 ! R31   R(17,30)                1.0962         estimate D2E/DX2                !
 ! R32   R(17,31)                1.0965         estimate D2E/DX2                !
 ! R33   R(17,32)                1.0944         estimate D2E/DX2                !
 ! R34   R(18,33)                1.0967         estimate D2E/DX2                !
 ! R35   R(18,34)                1.0965         estimate D2E/DX2                !
 ! R36   R(18,35)                1.0935         estimate D2E/DX2                !
 ! R37   R(19,36)                1.0956         estimate D2E/DX2                !
 ! R38   R(19,37)                1.0963         estimate D2E/DX2                !
 ! R39   R(19,38)                1.0964         estimate D2E/DX2                !
 ! R40   R(20,39)                1.0882         estimate D2E/DX2                !
 ! R41   R(21,23)                1.3937         estimate D2E/DX2                !
 ! R42   R(21,40)                1.088          estimate D2E/DX2                !
 ! R43   R(22,23)                1.3939         estimate D2E/DX2                !
 ! R44   R(22,41)                1.088          estimate D2E/DX2                !
 ! R45   R(23,42)                1.0863         estimate D2E/DX2                !
 ! A1    A(5,2,12)             123.3517         estimate D2E/DX2                !
 ! A2    A(5,2,24)             118.2125         estimate D2E/DX2                !
 ! A3    A(12,2,24)            118.4232         estimate D2E/DX2                !
 ! A4    A(4,3,6)              119.9904         estimate D2E/DX2                !
 ! A5    A(4,3,7)              119.9806         estimate D2E/DX2                !
 ! A6    A(6,3,7)              120.029          estimate D2E/DX2                !
 ! A7    A(3,4,9)              119.9801         estimate D2E/DX2                !
 ! A8    A(3,4,10)             119.9923         estimate D2E/DX2                !
 ! A9    A(9,4,10)             120.0275         estimate D2E/DX2                !
 ! A10   A(2,5,17)             109.0744         estimate D2E/DX2                !
 ! A11   A(2,5,18)             109.3002         estimate D2E/DX2                !
 ! A12   A(2,5,19)             109.303          estimate D2E/DX2                !
 ! A13   A(17,5,18)            109.7881         estimate D2E/DX2                !
 ! A14   A(17,5,19)            109.7883         estimate D2E/DX2                !
 ! A15   A(18,5,19)            109.5703         estimate D2E/DX2                !
 ! A16   A(3,6,8)              119.3025         estimate D2E/DX2                !
 ! A17   A(3,6,11)             119.225          estimate D2E/DX2                !
 ! A18   A(8,6,11)             121.4725         estimate D2E/DX2                !
 ! A19   A(3,7,13)             119.3006         estimate D2E/DX2                !
 ! A20   A(3,7,16)             119.2273         estimate D2E/DX2                !
 ! A21   A(13,7,16)            121.4721         estimate D2E/DX2                !
 ! A22   A(6,8,12)             122.5301         estimate D2E/DX2                !
 ! A23   A(6,8,14)             120.5816         estimate D2E/DX2                !
 ! A24   A(12,8,14)            116.8884         estimate D2E/DX2                !
 ! A25   A(4,9,15)             119.2298         estimate D2E/DX2                !
 ! A26   A(4,9,21)             119.2966         estimate D2E/DX2                !
 ! A27   A(15,9,21)            121.4736         estimate D2E/DX2                !
 ! A28   A(4,10,20)            119.2235         estimate D2E/DX2                !
 ! A29   A(4,10,22)            119.3023         estimate D2E/DX2                !
 ! A30   A(20,10,22)           121.4742         estimate D2E/DX2                !
 ! A31   A(6,11,15)            120.7877         estimate D2E/DX2                !
 ! A32   A(6,11,25)            122.102          estimate D2E/DX2                !
 ! A33   A(15,11,25)           117.1049         estimate D2E/DX2                !
 ! A34   A(1,12,2)             122.9503         estimate D2E/DX2                !
 ! A35   A(1,12,8)             120.2649         estimate D2E/DX2                !
 ! A36   A(2,12,8)             116.7753         estimate D2E/DX2                !
 ! A37   A(7,13,14)            120.5821         estimate D2E/DX2                !
 ! A38   A(7,13,26)            120.5836         estimate D2E/DX2                !
 ! A39   A(14,13,26)           118.8343         estimate D2E/DX2                !
 ! A40   A(8,14,13)            120.2042         estimate D2E/DX2                !
 ! A41   A(8,14,27)            121.0165         estimate D2E/DX2                !
 ! A42   A(13,14,27)           118.7781         estimate D2E/DX2                !
 ! A43   A(9,15,11)            120.7871         estimate D2E/DX2                !
 ! A44   A(9,15,28)            120.5057         estimate D2E/DX2                !
 ! A45   A(11,15,28)           118.7069         estimate D2E/DX2                !
 ! A46   A(7,16,20)            120.7894         estimate D2E/DX2                !
 ! A47   A(7,16,29)            120.5326         estimate D2E/DX2                !
 ! A48   A(20,16,29)           118.678          estimate D2E/DX2                !
 ! A49   A(5,17,30)            110.8233         estimate D2E/DX2                !
 ! A50   A(5,17,31)            111.0274         estimate D2E/DX2                !
 ! A51   A(5,17,32)            112.9513         estimate D2E/DX2                !
 ! A52   A(30,17,31)           107.6043         estimate D2E/DX2                !
 ! A53   A(30,17,32)           106.9547         estimate D2E/DX2                !
 ! A54   A(31,17,32)           107.2204         estimate D2E/DX2                !
 ! A55   A(5,18,33)            110.5639         estimate D2E/DX2                !
 ! A56   A(5,18,34)            111.1653         estimate D2E/DX2                !
 ! A57   A(5,18,35)            113.5279         estimate D2E/DX2                !
 ! A58   A(33,18,34)           107.4402         estimate D2E/DX2                !
 ! A59   A(33,18,35)           106.2328         estimate D2E/DX2                !
 ! A60   A(34,18,35)           107.602          estimate D2E/DX2                !
 ! A61   A(5,19,36)            111.4402         estimate D2E/DX2                !
 ! A62   A(5,19,37)            111.1492         estimate D2E/DX2                !
 ! A63   A(5,19,38)            111.11           estimate D2E/DX2                !
 ! A64   A(36,19,37)           107.8291         estimate D2E/DX2                !
 ! A65   A(36,19,38)           107.8934         estimate D2E/DX2                !
 ! A66   A(37,19,38)           107.2345         estimate D2E/DX2                !
 ! A67   A(10,20,16)           120.7869         estimate D2E/DX2                !
 ! A68   A(10,20,39)           120.5273         estimate D2E/DX2                !
 ! A69   A(16,20,39)           118.6858         estimate D2E/DX2                !
 ! A70   A(9,21,23)            120.5893         estimate D2E/DX2                !
 ! A71   A(9,21,40)            120.5935         estimate D2E/DX2                !
 ! A72   A(23,21,40)           118.8172         estimate D2E/DX2                !
 ! A73   A(10,22,23)           120.5837         estimate D2E/DX2                !
 ! A74   A(10,22,41)           120.6056         estimate D2E/DX2                !
 ! A75   A(23,22,41)           118.8107         estimate D2E/DX2                !
 ! A76   A(21,23,22)           120.2004         estimate D2E/DX2                !
 ! A77   A(21,23,42)           119.8983         estimate D2E/DX2                !
 ! A78   A(22,23,42)           119.9012         estimate D2E/DX2                !
 ! D1    D(12,2,5,17)          -64.0254         estimate D2E/DX2                !
 ! D2    D(12,2,5,18)           56.0164         estimate D2E/DX2                !
 ! D3    D(12,2,5,19)          175.9309         estimate D2E/DX2                !
 ! D4    D(24,2,5,17)          114.6597         estimate D2E/DX2                !
 ! D5    D(24,2,5,18)         -125.2985         estimate D2E/DX2                !
 ! D6    D(24,2,5,19)           -5.384          estimate D2E/DX2                !
 ! D7    D(5,2,12,1)            -0.0027         estimate D2E/DX2                !
 ! D8    D(5,2,12,8)          -178.8807         estimate D2E/DX2                !
 ! D9    D(24,2,12,1)         -178.6852         estimate D2E/DX2                !
 ! D10   D(24,2,12,8)            2.4368         estimate D2E/DX2                !
 ! D11   D(6,3,4,9)             -0.0055         estimate D2E/DX2                !
 ! D12   D(6,3,4,10)          -179.9995         estimate D2E/DX2                !
 ! D13   D(7,3,4,9)            179.9954         estimate D2E/DX2                !
 ! D14   D(7,3,4,10)             0.0014         estimate D2E/DX2                !
 ! D15   D(4,3,6,8)            179.9987         estimate D2E/DX2                !
 ! D16   D(4,3,6,11)             0.0029         estimate D2E/DX2                !
 ! D17   D(7,3,6,8)             -0.0021         estimate D2E/DX2                !
 ! D18   D(7,3,6,11)          -179.9979         estimate D2E/DX2                !
 ! D19   D(4,3,7,13)          -179.998          estimate D2E/DX2                !
 ! D20   D(4,3,7,16)             0.0018         estimate D2E/DX2                !
 ! D21   D(6,3,7,13)             0.0029         estimate D2E/DX2                !
 ! D22   D(6,3,7,16)          -179.9973         estimate D2E/DX2                !
 ! D23   D(3,4,9,15)             0.0069         estimate D2E/DX2                !
 ! D24   D(3,4,9,21)           179.9981         estimate D2E/DX2                !
 ! D25   D(10,4,9,15)         -179.9991         estimate D2E/DX2                !
 ! D26   D(10,4,9,21)           -0.0079         estimate D2E/DX2                !
 ! D27   D(3,4,10,20)           -0.0081         estimate D2E/DX2                !
 ! D28   D(3,4,10,22)         -179.9982         estimate D2E/DX2                !
 ! D29   D(9,4,10,20)          179.9979         estimate D2E/DX2                !
 ! D30   D(9,4,10,22)            0.0078         estimate D2E/DX2                !
 ! D31   D(2,5,17,30)         -175.7403         estimate D2E/DX2                !
 ! D32   D(2,5,17,31)          -56.2112         estimate D2E/DX2                !
 ! D33   D(2,5,17,32)           64.2679         estimate D2E/DX2                !
 ! D34   D(18,5,17,30)          64.5192         estimate D2E/DX2                !
 ! D35   D(18,5,17,31)        -175.9517         estimate D2E/DX2                !
 ! D36   D(18,5,17,32)         -55.4726         estimate D2E/DX2                !
 ! D37   D(19,5,17,30)         -55.9963         estimate D2E/DX2                !
 ! D38   D(19,5,17,31)          63.5328         estimate D2E/DX2                !
 ! D39   D(19,5,17,32)        -175.988          estimate D2E/DX2                !
 ! D40   D(2,5,18,33)          171.3579         estimate D2E/DX2                !
 ! D41   D(2,5,18,34)           52.1148         estimate D2E/DX2                !
 ! D42   D(2,5,18,35)          -69.3688         estimate D2E/DX2                !
 ! D43   D(17,5,18,33)         -69.0396         estimate D2E/DX2                !
 ! D44   D(17,5,18,34)         171.7174         estimate D2E/DX2                !
 ! D45   D(17,5,18,35)          50.2337         estimate D2E/DX2                !
 ! D46   D(19,5,18,33)          51.6078         estimate D2E/DX2                !
 ! D47   D(19,5,18,34)         -67.6352         estimate D2E/DX2                !
 ! D48   D(19,5,18,35)         170.8811         estimate D2E/DX2                !
 ! D49   D(2,5,19,36)          179.8336         estimate D2E/DX2                !
 ! D50   D(2,5,19,37)           59.5277         estimate D2E/DX2                !
 ! D51   D(2,5,19,38)          -59.8054         estimate D2E/DX2                !
 ! D52   D(17,5,19,36)          60.2292         estimate D2E/DX2                !
 ! D53   D(17,5,19,37)         -60.0767         estimate D2E/DX2                !
 ! D54   D(17,5,19,38)        -179.4099         estimate D2E/DX2                !
 ! D55   D(18,5,19,36)         -60.418          estimate D2E/DX2                !
 ! D56   D(18,5,19,37)         179.276          estimate D2E/DX2                !
 ! D57   D(18,5,19,38)          59.9429         estimate D2E/DX2                !
 ! D58   D(3,6,8,12)          -179.9915         estimate D2E/DX2                !
 ! D59   D(3,6,8,14)             0.0053         estimate D2E/DX2                !
 ! D60   D(11,6,8,12)            0.0042         estimate D2E/DX2                !
 ! D61   D(11,6,8,14)         -179.9989         estimate D2E/DX2                !
 ! D62   D(3,6,11,15)           -0.0018         estimate D2E/DX2                !
 ! D63   D(3,6,11,25)         -179.134          estimate D2E/DX2                !
 ! D64   D(8,6,11,15)         -179.9976         estimate D2E/DX2                !
 ! D65   D(8,6,11,25)            0.8703         estimate D2E/DX2                !
 ! D66   D(3,7,13,14)           -0.007          estimate D2E/DX2                !
 ! D67   D(3,7,13,26)          179.9195         estimate D2E/DX2                !
 ! D68   D(16,7,13,14)         179.9933         estimate D2E/DX2                !
 ! D69   D(16,7,13,26)          -0.0802         estimate D2E/DX2                !
 ! D70   D(3,7,16,20)            0.0018         estimate D2E/DX2                !
 ! D71   D(3,7,16,29)         -179.9994         estimate D2E/DX2                !
 ! D72   D(13,7,16,20)        -179.9984         estimate D2E/DX2                !
 ! D73   D(13,7,16,29)           0.0004         estimate D2E/DX2                !
 ! D74   D(6,8,12,1)            61.0826         estimate D2E/DX2                !
 ! D75   D(6,8,12,2)          -120.0075         estimate D2E/DX2                !
 ! D76   D(14,8,12,1)         -118.9143         estimate D2E/DX2                !
 ! D77   D(14,8,12,2)           59.9955         estimate D2E/DX2                !
 ! D78   D(6,8,14,13)           -0.0094         estimate D2E/DX2                !
 ! D79   D(6,8,14,27)         -179.608          estimate D2E/DX2                !
 ! D80   D(12,8,14,13)         179.9876         estimate D2E/DX2                !
 ! D81   D(12,8,14,27)           0.389          estimate D2E/DX2                !
 ! D82   D(4,9,15,11)           -0.0059         estimate D2E/DX2                !
 ! D83   D(4,9,15,28)          179.8077         estimate D2E/DX2                !
 ! D84   D(21,9,15,11)        -179.9969         estimate D2E/DX2                !
 ! D85   D(21,9,15,28)          -0.1833         estimate D2E/DX2                !
 ! D86   D(4,9,21,23)            0.0066         estimate D2E/DX2                !
 ! D87   D(4,9,21,40)         -179.9966         estimate D2E/DX2                !
 ! D88   D(15,9,21,23)         179.9976         estimate D2E/DX2                !
 ! D89   D(15,9,21,40)          -0.0056         estimate D2E/DX2                !
 ! D90   D(4,10,20,16)           0.0118         estimate D2E/DX2                !
 ! D91   D(4,10,20,39)        -179.9995         estimate D2E/DX2                !
 ! D92   D(22,10,20,16)       -179.9983         estimate D2E/DX2                !
 ! D93   D(22,10,20,39)         -0.0095         estimate D2E/DX2                !
 ! D94   D(4,10,22,23)          -0.0064         estimate D2E/DX2                !
 ! D95   D(4,10,22,41)        -179.9979         estimate D2E/DX2                !
 ! D96   D(20,10,22,23)       -179.9963         estimate D2E/DX2                !
 ! D97   D(20,10,22,41)          0.0122         estimate D2E/DX2                !
 ! D98   D(6,11,15,9)            0.0034         estimate D2E/DX2                !
 ! D99   D(6,11,15,28)        -179.8135         estimate D2E/DX2                !
 ! D100  D(25,11,15,9)         179.1775         estimate D2E/DX2                !
 ! D101  D(25,11,15,28)         -0.6394         estimate D2E/DX2                !
 ! D102  D(7,13,14,8)            0.0102         estimate D2E/DX2                !
 ! D103  D(7,13,14,27)         179.6177         estimate D2E/DX2                !
 ! D104  D(26,13,14,8)        -179.9175         estimate D2E/DX2                !
 ! D105  D(26,13,14,27)         -0.31           estimate D2E/DX2                !
 ! D106  D(7,16,20,10)          -0.0087         estimate D2E/DX2                !
 ! D107  D(7,16,20,39)        -179.9977         estimate D2E/DX2                !
 ! D108  D(29,16,20,10)        179.9924         estimate D2E/DX2                !
 ! D109  D(29,16,20,39)          0.0035         estimate D2E/DX2                !
 ! D110  D(9,21,23,22)          -0.0052         estimate D2E/DX2                !
 ! D111  D(9,21,23,42)        -179.9994         estimate D2E/DX2                !
 ! D112  D(40,21,23,22)        179.998          estimate D2E/DX2                !
 ! D113  D(40,21,23,42)          0.0037         estimate D2E/DX2                !
 ! D114  D(10,22,23,21)          0.0051         estimate D2E/DX2                !
 ! D115  D(10,22,23,42)        179.9993         estimate D2E/DX2                !
 ! D116  D(41,22,23,21)        179.9968         estimate D2E/DX2                !
 ! D117  D(41,22,23,42)         -0.009          estimate D2E/DX2                !
 --------------------------------------------------------------------------------
 Trust Radius=3.00D-01 FncErr=1.00D-07 GrdErr=1.00D-06 EigMax=2.50D+02 EigMin=1.00D-04
 Number of steps in this run=    250 maximum allowed number of steps=    252.
 GradGradGradGradGradGradGradGradGradGradGradGradGradGradGradGradGradGrad

 Leave Link  103 at Tue Dec  5 11:26:19 2023, MaxMem=  2147483648 cpu:               1.0 elap:               0.1
 (Enter /opt/gaussian/g16-c01/g16/l202.exe)
                          Input orientation:                          
 ---------------------------------------------------------------------
 Center     Atomic      Atomic             Coordinates (Angstroms)
 Number     Number       Type             X           Y           Z
 ---------------------------------------------------------------------
      1          8           0       -2.730500   -0.760900    1.492500
      2          7           0       -3.449100    0.213100   -0.485300
      3          6           0        1.225700    0.518300    0.074100
      4          6           0        2.431900   -0.216600   -0.040000
      5          6           0       -4.793800   -0.315800   -0.454000
      6          6           0       -0.004600   -0.161900    0.229100
      7          6           0        1.252700    1.931900    0.032900
      8          6           0       -1.189700    0.579800    0.340700
      9          6           0        2.404900   -1.630200    0.001300
     10          6           0        3.662300    0.463600   -0.195000
     11          6           0       -0.011800   -1.562700    0.267800
     12          6           0       -2.497400   -0.049300    0.503100
     13          6           0        0.050400    2.645000    0.147200
     14          6           0       -1.161000    1.972800    0.299800
     15          6           0        1.176700   -2.286900    0.155400
     16          6           0        2.481000    2.588600   -0.121300
     17          6           0       -4.733600   -1.843300   -0.557800
     18          6           0       -5.466900    0.088800    0.862600
     19          6           0       -5.589900    0.253600   -1.633900
     20          6           0        3.669500    1.864400   -0.233800
     21          6           0        3.607200   -2.343200   -0.113000
     22          6           0        4.847300   -0.278100   -0.306600
     23          6           0        4.818600   -1.671100   -0.265700
     24          1           0       -3.177700    0.789500   -1.277500
     25          1           0       -0.931200   -2.132900    0.371300
     26          1           0        0.047100    3.732600    0.119500
     27          1           0       -2.074900    2.555100    0.392000
     28          1           0        1.131500   -3.373800    0.186700
     29          1           0        2.526400    3.675300   -0.155700
     30          1           0       -5.741800   -2.270200   -0.612700
     31          1           0       -4.191800   -2.155400   -1.458600
     32          1           0       -4.235600   -2.309900    0.297800
     33          1           0       -6.533000   -0.167900    0.845000
     34          1           0       -5.391900    1.169900    1.029700
     35          1           0       -5.046500   -0.411300    1.739500
     36          1           0       -6.616800   -0.128000   -1.645500
     37          1           0       -5.123000   -0.010100   -2.590100
     38          1           0       -5.637700    1.347900   -1.586600
     39          1           0        4.604000    2.409300   -0.352300
     40          1           0        3.610900   -3.430800   -0.084000
     41          1           0        5.805400    0.223300   -0.426500
     42          1           0        5.743200   -2.234600   -0.353200
 ---------------------------------------------------------------------
                    Distance matrix (angstroms):
                    1          2          3          4          5
     1  O    0.000000
     2  N    2.318783   0.000000
     3  C    4.393146   4.718032   0.000000
     4  C    5.412503   5.913467   1.417045   0.000000
     5  C    2.871269   1.445314   6.099917   7.238230   0.000000
     6  C    3.063578   3.537736   1.414332   2.451926   4.840119
     7  C    5.024688   5.032865   1.414458   2.451913   6.469110
     8  C    2.344821   2.433441   2.430847   3.727623   3.797787
     9  C    5.417720   6.156610   2.451910   1.414461   7.331864
    10  C    6.724206   7.121730   2.452025   1.414419   8.495892
    11  C    3.087734   3.941530   2.428886   2.806848   4.994325
    12  C    1.240815   1.396969   3.790473   4.961950   2.502102
    13  C    4.598194   4.308212   2.430952   3.727645   5.709120
    14  C    3.370308   2.991376   2.804077   4.221122   4.359259
    15  C    4.402582   5.297030   2.806806   2.428961   6.316920
    16  C    6.401815   6.398561   2.429012   2.806807   7.840213
    17  C    3.063940   2.425691   6.441251   7.366048   1.532206
    18  C    2.933709   2.429774   6.752562   7.956067   1.533036
    19  C    4.356576   2.429804   7.031339   8.192123   1.533022
    20  C    7.129678   7.311943   2.806946   2.428945   8.742380
    21  C    6.726644   7.514296   3.727564   2.430861   8.648898
    22  C    7.803391   8.312849   3.727623   2.430847   9.642300
    23  C    7.804399   8.482529   4.221122   2.804077   9.709301
    24  H    3.205718   1.016600   4.614142   5.831917   2.124057
    25  H    2.525263   3.546449   3.430657   3.892533   4.347718
    26  H    5.458180   4.997607   3.423870   4.616156   6.336620
    27  H    3.554823   2.853602   3.891475   5.308502   4.043538
    28  H    4.842252   5.856563   3.894868   3.422038   6.698585
    29  H    7.073290   6.913904   3.422174   3.894766   8.342853
    30  H    3.972126   3.382230   7.536145   8.447167   2.177974
    31  H    3.576174   2.666216   6.232748   7.045905   2.180769
    32  H    2.468205   2.756330   6.154231   6.996540   2.203004
    33  H    3.902552   3.380133   7.827042   9.008609   2.175797
    34  H    3.320425   2.642946   6.717915   8.017387   2.183207
    35  H    2.355225   2.809145   6.555777   7.689668   2.210072
    36  H    5.034971   3.390684   8.054783   9.190454   2.185925
    37  H    4.791177   2.698507   6.905299   7.976350   2.182830
    38  H    4.730719   2.700112   7.110023   8.364094   2.182395
    39  H    8.200509   8.348257   3.894947   3.422119   9.785456
    40  H    7.058829   7.955039   4.616228   3.423895   8.971015
    41  H    8.804135   9.254692   4.616414   3.423945  10.612937
    42  H    8.796703   9.513520   5.307433   3.890389  10.710757
                    6          7          8          9         10
     6  C    0.000000
     7  C    2.450162   0.000000
     8  C    1.402510   2.808600   0.000000
     9  C    2.830810   3.743944   4.233254   0.000000
    10  C    3.743964   2.830904   4.882866   2.450222   0.000000
    11  C    1.401353   3.723757   2.446031   2.432286   4.221266
    12  C    2.510340   4.267258   1.460212   5.175287   6.220315
    13  C    2.808633   1.402534   2.416680   4.882857   4.233371
    14  C    2.428828   2.428756   1.393896   5.078027   5.078064
    15  C    2.432391   4.221262   3.721848   1.401241   3.723740
    16  C    3.723740   1.401340   4.209841   4.221267   2.432391
    17  C    5.080331   7.101891   4.386108   7.163532   8.714617
    18  C    5.504625   7.017011   4.336808   8.103211   9.197896
    19  C    5.902456   7.239896   4.833964   8.374927   9.365775
    20  C    4.221277   2.432408   5.058861   3.723804   1.401356
    21  C    4.233226   4.882769   5.635603   1.402483   2.808538
    22  C    4.882767   4.233262   6.131913   2.808611   1.402426
    23  C    5.077969   5.078032   6.444683   2.428767   2.428780
    24  H    3.639171   4.759272   2.571904   6.217371   6.932793
    25  H    2.182579   4.626719   2.725161   3.393990   5.306859
    26  H    3.896385   2.168753   3.393929   5.859421   4.884152
    27  H    3.419761   3.404446   2.165184   6.143125   6.134689
    28  H    3.407172   5.309312   4.587226   2.167040   4.612622
    29  H    4.612823   2.167331   4.861886   5.309213   3.406880
    30  H    6.170010   8.185198   5.454639   8.194835   9.802308
    31  H    4.935080   6.969446   4.442004   6.776695   8.375126
    32  H    4.745523   6.941504   4.198775   6.681777   8.385224
    33  H    6.557391   8.104677   5.418877   9.095945  10.267645
    34  H    5.606929   6.762024   4.299003   8.347949   9.163912
    35  H    5.269181   6.934190   4.220643   7.747930   8.963868
    36  H    6.872879   8.305976   5.822318   9.292988  10.397780
    37  H    5.845421   7.162475   4.940488   8.124614   9.118245
    38  H    6.108034   7.102214   4.908072   8.722037   9.445027
    39  H    5.309264   3.406978   6.115086   4.612877   2.167323
    40  H    4.884217   5.859464   6.269852   2.168841   3.896321
    41  H    5.859547   4.884408   7.046071   3.896393   2.168920
    42  H    6.137782   6.137865   7.514482   3.411043   3.411078
                   11         12         13         14         15
    11  C    0.000000
    12  C    2.919581   0.000000
    13  C    4.209887   3.725212   0.000000
    14  C    3.717720   2.432321   1.393782   0.000000
    15  C    1.396292   4.315873   5.058879   4.861146   0.000000
    16  C    4.857854   5.668585   2.446035   3.717620   5.054529
    17  C    4.801640   3.056883   6.597615   5.297317   5.969680
    18  C    5.730563   2.994368   6.122626   4.733601   7.090945
    19  C    6.166896   3.771216   6.379976   5.129327   7.445979
    20  C    5.054561   6.498917   3.721879   4.861091   4.857862
    21  C    3.721740   6.550397   6.131938   6.444687   2.445923
    22  C    5.058753   7.392738   5.635663   6.444683   4.209754
    23  C    4.860981   7.532937   6.444760   7.025198   3.717522
    24  H    4.236003   2.082530   3.986638   2.820488   5.520710
    25  H    1.086801   2.609932   4.882836   4.112748   2.124517
    26  H    5.297704   4.574319   1.087958   2.142174   6.124677
    27  H    4.607395   2.640786   2.141240   1.087560   5.837281
    28  H    2.143314   4.931665   6.115251   5.818460   1.088290
    29  H    5.835962   6.288500   2.698859   4.086919   6.120972
    30  H    5.840269   4.086996   7.634541   6.310264   6.961027
    31  H    4.561157   3.339898   6.604445   5.414772   5.607413
    32  H    4.289486   2.858986   6.553130   5.272067   5.414222
    33  H    6.693630   4.051793   7.193086   5.808461   8.025284
    34  H    6.082193   3.184633   5.707307   4.367828   7.473980
    35  H    5.370273   2.856158   6.152624   4.780563   6.689953
    36  H    7.024607   4.646733   7.440085   6.161437   8.285091
    37  H    6.058261   4.057487   6.427008   5.289694   7.239324
    38  H    6.600087   4.022499   6.086297   4.897943   7.917221
    39  H    6.121023   7.563485   4.586974   5.818161   5.835961
    40  H    4.091151   7.006465   7.045989   7.219226   2.700213
    41  H    6.124677   8.359124   6.270071   7.219348   5.297601
    42  H    5.827273   8.568330   7.514577   8.111510   4.595033
                   16         17         18         19         20
    16  C    0.000000
    17  C    8.478368   0.000000
    18  C    8.389647   2.507643   0.000000
    19  C    8.536956   2.507634   2.504955   0.000000
    20  C    1.396300   9.190436   9.371694   9.502181   0.000000
    21  C    5.058759   8.367598   9.444877   9.676939   4.209795
    22  C    3.721785   9.711158  10.386740  10.534684   2.445980
    23  C    4.861098   9.558216  10.495800  10.673018   3.717689
    24  H    6.049334   3.141724   3.211144   2.496581   7.009199
    25  H    5.846223   3.924964   5.074436   5.605327   6.124622
    26  H    2.700109   7.375940   6.650840   6.852271   4.091060
    27  H    4.584847   5.226541   4.220162   4.664375   5.819521
    28  H    6.120966   6.107054   7.482334   7.851741   5.835838
    29  H    1.088192   9.128211   8.820021   8.931261   2.142927
    30  H    9.563674   1.096232   2.795883   2.726809  10.286450
    31  H    8.295792   1.096537   3.471352   2.790823   8.913976
    32  H    8.323681   1.094427   2.754789   3.483838   8.955333
    33  H    9.475454   2.830663   1.096710   2.685525  10.458731
    34  H    8.082083   3.468846   1.096506   2.823752   9.175387
    35  H    8.314159   2.725090   1.093522   3.480977   9.221788
    36  H    9.616292   2.769799   2.767641   1.095571  10.572158
    37  H    8.406487   2.764507   3.471194   1.096290   9.293759
    38  H    8.342645   3.472691   2.759182   1.096364   9.419173
    39  H    2.143044  10.262437  10.405947  10.497864   1.088232
    40  H    6.124642   8.507369   9.782131  10.031536   5.297643
    41  H    4.091384  10.740512  11.346568  11.459127   2.700447
    42  H    5.827434  10.486101  11.512719  11.673495   4.595246
                   21         22         23         24         25
    21  C    0.000000
    22  C    2.416602   0.000000
    23  C    1.393745   1.393896   0.000000
    24  H    7.563381   8.153713   8.427283   0.000000
    25  H    4.569009   6.106627   5.803381   4.038035   0.000000
    26  H    7.045830   6.269705   7.219111   4.583970   5.951854
    27  H    7.518951   7.512118   8.112563   2.668472   4.825539
    28  H    2.698342   4.861468   4.086387   6.168156   2.414258
    29  H    6.114924   4.586798   5.818099   6.490226   6.779964
    30  H    9.362629  10.779202  10.583070   4.047015   4.912126
    31  H    7.916458   9.303585   9.101915   3.119877   3.739058
    32  H    7.853622   9.326981   9.094181   3.634144   3.309953
    33  H   10.415054  11.438949  11.504438   4.084074   5.955315
    34  H    9.727869  10.427062  10.677249   3.220335   5.589260
    35  H    9.058174  10.104036  10.145350   3.746548   4.666002
    36  H   10.572882  11.542997  11.621247   3.578357   6.357134
    37  H    9.369940  10.231964  10.343943   2.479208   5.554040
    38  H   10.062996  10.687259  10.963273   2.541447   6.172559
    39  H    4.861803   2.698778   4.086957   8.002162   7.196778
    40  H    1.087993   3.393782   2.141985   8.082108   4.745789
    41  H    3.393713   1.087995   2.142051   9.041066   7.181222
    42  H    2.152205   2.152371   1.086312   9.464775   6.714377
                   26         27         28         29         30
    26  H    0.000000
    27  H    2.442058   0.000000
    28  H    7.188975   6.743516   0.000000
    29  H    2.495185   4.767262   7.193942   0.000000
    30  H    8.371445   6.143216   7.007084  10.194163   0.000000
    31  H    7.424770   5.485872   5.703423   8.990485   1.769527
    32  H    7.408449   5.324070   5.472658   9.041732   1.760462
    33  H    7.683617   5.243529   8.334009   9.891629   2.677789
    34  H    6.081005   3.650744   7.994411   8.389379   3.828080
    35  H    6.763214   4.409727   7.025331   8.811407   3.077628
    36  H    7.901077   5.655023   8.598158  10.014125   2.534033
    37  H    6.933950   4.976353   7.625213   8.832995   3.066117
    38  H    6.396446   4.250380   8.441630   8.609111   3.748328
    39  H    4.768549   6.721826   6.767054   2.440867  11.357865
    40  H    8.003523   8.269577   2.494785   7.188737   9.439254
    41  H    6.765451   8.258714   5.929628   4.768803  11.814823
    42  H    8.262958   9.198871   4.780904   6.731547  11.487986
                   31         32         33         34         35
    31  H    0.000000
    32  H    1.763726   0.000000
    33  H    3.839003   3.188360   0.000000
    34  H    4.323135   3.739213   1.768031   0.000000
    35  H    3.741690   2.518083   1.751872   1.767289   0.000000
    36  H    3.166371   3.769246   2.492229   3.215839   3.742235
    37  H    2.598026   3.796910   3.716573   3.816760   4.348822
    38  H    3.792113   4.346993   3.001981   2.633843   3.808838
    39  H    9.971283  10.041514  11.493836  10.166811  10.269545
    40  H    8.024855   7.935348  10.696180  10.171390   9.348428
    41  H   10.327994  10.380915  12.409910  11.331200  11.084133
    42  H    9.996620  10.000296  12.506479  11.725762  11.140980
                   36         37         38         39         40
    36  H    0.000000
    37  H    1.771329   0.000000
    38  H    1.772114   1.765246   0.000000
    39  H   11.576554  10.270140  10.370269   0.000000
    40  H   10.860599   9.708900  10.518098   5.930008   0.000000
    41  H   12.486810  11.142960  11.556604   2.495489   4.276165
    42  H   12.604658  11.314876  11.995018   4.781588   2.459688
                   41         42
    41  H    0.000000
    42  H    2.459779   0.000000
 Stoichiometry    C21H19NO
 Framework group  C1[X(C21H19NO)]
 Deg. of freedom   120
 Full point group                 C1      NOp   1
 Largest Abelian subgroup         C1      NOp   1
 Largest concise Abelian subgroup C1      NOp   1
                         Standard orientation:                         
 ---------------------------------------------------------------------
 Center     Atomic      Atomic             Coordinates (Angstroms)
 Number     Number       Type             X           Y           Z
 ---------------------------------------------------------------------
      1          8           0        2.476179   -0.724749   -1.522490
      2          7           0        3.198981    0.265191    0.445842
      3          6           0       -1.481252    0.531697   -0.087286
      4          6           0       -2.681083   -0.211780    0.037863
      5          6           0        4.547489   -0.253580    0.409311
      6          6           0       -0.246710   -0.139897   -0.246036
      7          6           0       -1.518850    1.945248   -0.053361
      8          6           0        0.931985    0.610233   -0.368596
      9          6           0       -2.643485   -1.625332    0.003838
     10          6           0       -3.915725    0.459813    0.196613
     11          6           0       -0.228994   -1.540787   -0.277411
     12          6           0        2.243488   -0.009712   -0.535475
     13          6           0       -0.322753    2.666896   -0.178573
     14          6           0        0.892843    2.003170   -0.334852
     15          6           0       -1.411218   -2.273438   -0.154123
     16          6           0       -2.751217    2.593354    0.104700
     17          6           0        4.499624   -1.780923    0.521500
     18          6           0        5.209661    0.149161   -0.913386
     19          6           0        5.346168    0.328136    1.581435
     20          6           0       -3.933441    1.860703    0.228088
     21          6           0       -3.839583   -2.346880    0.129049
     22          6           0       -5.094320   -0.290316    0.319172
     23          6           0       -5.055178   -1.683253    0.285429
     24          1           0        2.927861    0.843695    1.236603
     25          1           0        0.694124   -2.104487   -0.383388
     26          1           0       -0.327632    3.754621   -0.156613
     27          1           0        1.801687    2.591937   -0.435558
     28          1           0       -1.357868   -3.360112   -0.179975
     29          1           0       -2.804748    3.679843    0.133654
     30          1           0        5.511376   -2.199811    0.572635
     31          1           0        3.965575   -2.092370    1.427142
     32          1           0        4.000162   -2.255846   -0.328651
     33          1           0        6.277784   -0.099291   -0.900790
     34          1           0        5.125383    1.228754   -1.085720
     35          1           0        4.787927   -0.358781   -1.785123
     36          1           0        6.376016   -0.045541    1.588922
     37          1           0        4.886972    0.065953    2.541774
     38          1           0        5.385292    1.422503    1.528097
     39          1           0       -4.871375    2.399069    0.349287
     40          1           0       -3.835112   -3.434615    0.105792
     41          1           0       -6.055511    0.204379    0.442141
     42          1           0       -5.974894   -2.253328    0.381399
 ---------------------------------------------------------------------
 Rotational constants (GHZ):           0.6344040           0.1450317           0.1249974
 Leave Link  202 at Tue Dec  5 11:26:19 2023, MaxMem=  2147483648 cpu:               1.5 elap:               0.1
 (Enter /opt/gaussian/g16-c01/g16/l301.exe)
 Standard basis: 6-311++G(d,p) (5D, 7F)
 Ernie: Thresh=  0.10000D-02 Tol=  0.10000D-05 Strict=F.
 There are   662 symmetry adapted cartesian basis functions of A   symmetry.
 There are   639 symmetry adapted basis functions of A   symmetry.
   639 basis functions,   999 primitive gaussians,   662 cartesian basis functions
    80 alpha electrons       80 beta electrons
       nuclear repulsion energy      1803.8628889503 Hartrees.
 IExCor= 7252 DFT=T Ex+Corr=MN15 ExCW=0 ScaHFX=  0.440000
 ScaDFX=  1.000000  1.000000  1.000000  1.000000 ScalE2=  1.000000  1.000000
 IRadAn=      5 IRanWt=     -1 IRanGd=            0 ICorTp=0 IEmpDi=  4
 NAtoms=   42 NActive=   42 NUniq=   42 SFac= 1.00D+00 NAtFMM=   60 NAOKFM=F Big=F
 Integral buffers will be    131072 words long.
 Raffenetti 2 integral format.
 Two-electron integral symmetry is turned on.
 Leave Link  301 at Tue Dec  5 11:26:19 2023, MaxMem=  2147483648 cpu:               3.1 elap:               0.2
 (Enter /opt/gaussian/g16-c01/g16/l302.exe)
 NPDir=0 NMtPBC=     1 NCelOv=     1 NCel=       1 NClECP=     1 NCelD=      1
         NCelK=      1 NCelE2=     1 NClLst=     1 CellRange=     0.0.
 One-electron integrals computed using PRISM.
 One-electron integral symmetry used in STVInt
 NBasis=   639 RedAO= T EigKep=  1.29D-06  NBF=   639
 NBsUse=   627 1.00D-06 EigRej=  8.41D-07 NBFU=   627
 Precomputing XC quadrature grid using
 IXCGrd= 4 IRadAn=           5 IRanWt=          -1 IRanGd=           0 AccXCQ= 0.00D+00.
 Generated NRdTot=       0 NPtTot=           0 NUsed=           0 NTot=          32
 NSgBfM=   658   657   657   658   658 MxSgAt=    42 MxSgA2=    42.
 Leave Link  302 at Tue Dec  5 11:26:20 2023, MaxMem=  2147483648 cpu:              23.5 elap:               1.0
 (Enter /opt/gaussian/g16-c01/g16/l303.exe)
 DipDrv:  MaxL=1.
 Leave Link  303 at Tue Dec  5 11:26:20 2023, MaxMem=  2147483648 cpu:               3.8 elap:               0.2
 (Enter /opt/gaussian/g16-c01/g16/l401.exe)
 ExpMin= 3.60D-02 ExpMax= 8.59D+03 ExpMxC= 1.30D+03 IAcc=3 IRadAn=         5 AccDes= 0.00D+00
 Harris functional with IExCor= 1009 and IRadAn=       5 diagonalized for initial guess.
 HarFok:  IExCor= 1009 AccDes= 0.00D+00 IRadAn=         5 IDoV= 1 UseB2=F ITyADJ=14
 ICtDFT=  3500011 ScaDFX=  1.000000  1.000000  1.000000  1.000000
 FoFCou: FMM=F IPFlag=           0 FMFlag=      100000 FMFlg1=           0
         NFxFlg=           0 DoJE=T BraDBF=F KetDBF=T FulRan=T
         wScrn=  0.000000 ICntrl=       500 IOpCl=  0 I1Cent=   200000004 NGrid=           0
         NMat0=    1 NMatS0=      1 NMatT0=    0 NMatD0=    1 NMtDS0=    0 NMtDT0=    0
 Petite list used in FoFCou.
 Harris En= -941.147826259892    
 JPrj=0 DoOrth=F DoCkMO=F.
 Leave Link  401 at Tue Dec  5 11:26:23 2023, MaxMem=  2147483648 cpu:              66.4 elap:               2.6
 (Enter /opt/gaussian/g16-c01/g16/l502.exe)
 Integral symmetry usage will be decided dynamically.
 Closed shell SCF:
 Using DIIS extrapolation, IDIIS=  1040.
 NGot=  2147483648 LenX=  2146582670 LenY=  2146143764
 Requested convergence on RMS density matrix=1.00D-08 within 128 cycles.
 Requested convergence on MAX density matrix=1.00D-06.
 Requested convergence on             energy=1.00D-06.
 No special actions if energy rises.
 Fock matrices will be formed incrementally for  20 cycles.

 Cycle   1  Pass 1  IDiag  1:
 FoFJK:  IHMeth= 1 ICntrl=       0 DoSepK=F KAlg= 0 I1Cent=           0 FoldK=F
 IRaf= 800000000 NMat=       1 IRICut=       1 DoRegI=T DoRafI=F ISym2E= 0 IDoP0=0 IntGTp=1.
 FoFCou: FMM=F IPFlag=           0 FMFlag=      100000 FMFlg1=           0
         NFxFlg=           0 DoJE=F BraDBF=F KetDBF=F FulRan=T
         wScrn=  0.000000 ICntrl=         0 IOpCl=  0 I1Cent=           0 NGrid=           0
         NMat0=    1 NMatS0=      1 NMatT0=    0 NMatD0=    1 NMtDS0=    0 NMtDT0=    0
 Symmetry not used in FoFCou.
 E= -940.253365582422    
 DIIS: error= 2.12D-02 at cycle   1 NSaved=   1.
 NSaved= 1 IEnMin= 1 EnMin= -940.253365582422     IErMin= 1 ErrMin= 2.12D-02
 ErrMax= 2.12D-02  0.00D+00 EMaxC= 1.00D-01 BMatC= 6.01D-01 BMatP= 6.01D-01
 IDIUse=3 WtCom= 7.88D-01 WtEn= 2.12D-01
 Coeff-Com:  0.100D+01
 Coeff-En:   0.100D+01
 Coeff:      0.100D+01
 Gap=     0.172 Goal=   None    Shift=    0.000
 GapD=    0.172 DampG=1.000 DampE=0.500 DampFc=0.5000 IDamp=-1.
 Damping current iteration by 5.00D-01
 RMSDP=1.03D-02 MaxDP=5.06D-01              OVMax= 2.03D-01

 Cycle   2  Pass 1  IDiag  1:
 RMSU=  5.09D-03    CP:  9.83D-01
 E= -940.503636359226     Delta-E=       -0.250270776804 Rises=F Damp=T
 DIIS: error= 9.17D-03 at cycle   2 NSaved=   2.
 NSaved= 2 IEnMin= 2 EnMin= -940.503636359226     IErMin= 2 ErrMin= 9.17D-03
 ErrMax= 9.17D-03  0.00D+00 EMaxC= 1.00D-01 BMatC= 6.24D-02 BMatP= 6.01D-01
 IDIUse=3 WtCom= 9.08D-01 WtEn= 9.17D-02
 Coeff-Com: -0.186D-01 0.102D+01
 Coeff-En:   0.000D+00 0.100D+01
 Coeff:     -0.169D-01 0.102D+01
 Gap=     0.275 Goal=   None    Shift=    0.000
 RMSDP=1.09D-02 MaxDP=1.00D+00 DE=-2.50D-01 OVMax= 1.23D-01

 Cycle   3  Pass 1  IDiag  1:
 RMSU=  3.91D-03    CP:  7.21D-01  7.23D-01
 E= -940.730229999319     Delta-E=       -0.226593640093 Rises=F Damp=F
 DIIS: error= 1.38D-02 at cycle   3 NSaved=   3.
 NSaved= 3 IEnMin= 3 EnMin= -940.730229999319     IErMin= 2 ErrMin= 9.17D-03
 ErrMax= 1.38D-02  0.00D+00 EMaxC= 1.00D-01 BMatC= 6.91D-02 BMatP= 6.24D-02
 IDIUse=2 WtCom= 0.00D+00 WtEn= 1.00D+00
 Coeff-En:   0.000D+00 0.000D+00 0.100D+01
 Coeff:      0.000D+00 0.000D+00 0.100D+01
 Gap=     0.173 Goal=   None    Shift=    0.000
 RMSDP=7.65D-03 MaxDP=5.08D-01 DE=-2.27D-01 OVMax= 2.23D-01

 Cycle   4  Pass 1  IDiag  1:
 RMSU=  5.69D-03    CP:  7.62D-01  1.63D+00  6.10D-01
 E= -940.548215734989     Delta-E=        0.182014264329 Rises=F Damp=F
 DIIS: error= 2.44D-02 at cycle   4 NSaved=   4.
 NSaved= 4 IEnMin= 3 EnMin= -940.730229999319     IErMin= 2 ErrMin= 9.17D-03
 ErrMax= 2.44D-02  0.00D+00 EMaxC= 1.00D-01 BMatC= 3.08D-01 BMatP= 6.24D-02
 IDIUse=2 WtCom= 0.00D+00 WtEn= 1.00D+00
 Coeff-En:   0.000D+00 0.000D+00 0.772D+00 0.228D+00
 Coeff:      0.000D+00 0.000D+00 0.772D+00 0.228D+00
 Gap=     0.206 Goal=   None    Shift=    0.000
 RMSDP=4.54D-03 MaxDP=3.43D-01 DE= 1.82D-01 OVMax= 9.80D-02

 Cycle   5  Pass 1  IDiag  1:
 RMSU=  8.04D-04    CP:  7.18D-01  1.13D+00  8.57D-01  4.57D-01
 E= -940.766367747942     Delta-E=       -0.218152012952 Rises=F Damp=F
 DIIS: error= 6.90D-03 at cycle   5 NSaved=   5.
 NSaved= 5 IEnMin= 5 EnMin= -940.766367747942     IErMin= 5 ErrMin= 6.90D-03
 ErrMax= 6.90D-03  0.00D+00 EMaxC= 1.00D-01 BMatC= 2.04D-02 BMatP= 6.24D-02
 IDIUse=3 WtCom= 9.31D-01 WtEn= 6.90D-02
 Coeff-Com:  0.111D-02 0.760D-02 0.263D+00-0.877D-01 0.816D+00
 Coeff-En:   0.000D+00 0.000D+00 0.271D+00 0.000D+00 0.729D+00
 Coeff:      0.104D-02 0.707D-02 0.264D+00-0.817D-01 0.810D+00
 Gap=     0.172 Goal=   None    Shift=    0.000
 RMSDP=1.25D-03 MaxDP=6.70D-02 DE=-2.18D-01 OVMax= 2.64D-02

 Cycle   6  Pass 1  IDiag  1:
 RMSU=  1.73D-04    CP:  7.07D-01  9.85D-01  9.31D-01  3.03D-01  8.21D-01
 E= -940.781251754414     Delta-E=       -0.014884006473 Rises=F Damp=F
 DIIS: error= 2.91D-04 at cycle   6 NSaved=   6.
 NSaved= 6 IEnMin= 6 EnMin= -940.781251754414     IErMin= 6 ErrMin= 2.91D-04
 ErrMax= 2.91D-04  0.00D+00 EMaxC= 1.00D-01 BMatC= 5.87D-05 BMatP= 2.04D-02
 IDIUse=3 WtCom= 9.97D-01 WtEn= 2.91D-03
 Coeff-Com:  0.460D-03 0.135D-02 0.109D+00-0.539D-01 0.413D+00 0.530D+00
 Coeff-En:   0.000D+00 0.000D+00 0.000D+00 0.000D+00 0.000D+00 0.100D+01
 Coeff:      0.458D-03 0.135D-02 0.108D+00-0.538D-01 0.412D+00 0.532D+00
 Gap=     0.171 Goal=   None    Shift=    0.000
 RMSDP=7.38D-05 MaxDP=4.96D-03 DE=-1.49D-02 OVMax= 2.18D-03

 Cycle   7  Pass 1  IDiag  1:
 RMSU=  5.49D-05    CP:  7.07D-01  9.90D-01  9.29D-01  3.06D-01  8.52D-01
                    CP:  8.32D-01
 E= -940.781302929604     Delta-E=       -0.000051175189 Rises=F Damp=F
 DIIS: error= 1.28D-04 at cycle   7 NSaved=   7.
 NSaved= 7 IEnMin= 7 EnMin= -940.781302929604     IErMin= 7 ErrMin= 1.28D-04
 ErrMax= 1.28D-04  0.00D+00 EMaxC= 1.00D-01 BMatC= 7.82D-06 BMatP= 5.87D-05
 IDIUse=3 WtCom= 9.99D-01 WtEn= 1.28D-03
 Coeff-Com:  0.384D-03-0.112D-02 0.179D-01-0.145D-01 0.863D-01 0.251D+00
 Coeff-Com:  0.660D+00
 Coeff-En:   0.000D+00 0.000D+00 0.000D+00 0.000D+00 0.000D+00 0.674D-01
 Coeff-En:   0.933D+00
 Coeff:      0.383D-03-0.112D-02 0.179D-01-0.144D-01 0.862D-01 0.251D+00
 Coeff:      0.660D+00
 Gap=     0.172 Goal=   None    Shift=    0.000
 RMSDP=3.30D-05 MaxDP=1.96D-03 DE=-5.12D-05 OVMax= 1.17D-03

 Cycle   8  Pass 1  IDiag  1:
 RMSU=  2.03D-05    CP:  7.07D-01  9.88D-01  9.33D-01  3.05D-01  8.44D-01
                    CP:  9.01D-01  8.77D-01
 E= -940.781310523841     Delta-E=       -0.000007594238 Rises=F Damp=F
 DIIS: error= 3.47D-05 at cycle   8 NSaved=   8.
 NSaved= 8 IEnMin= 8 EnMin= -940.781310523841     IErMin= 8 ErrMin= 3.47D-05
 ErrMax= 3.47D-05  0.00D+00 EMaxC= 1.00D-01 BMatC= 9.70D-07 BMatP= 7.82D-06
 IDIUse=1 WtCom= 1.00D+00 WtEn= 0.00D+00
 Coeff-Com:  0.284D-03-0.116D-02-0.347D-02-0.247D-03-0.784D-02 0.610D-01
 Coeff-Com:  0.344D+00 0.607D+00
 Coeff:      0.284D-03-0.116D-02-0.347D-02-0.247D-03-0.784D-02 0.610D-01
 Coeff:      0.344D+00 0.607D+00
 Gap=     0.172 Goal=   None    Shift=    0.000
 RMSDP=9.40D-06 MaxDP=4.32D-04 DE=-7.59D-06 OVMax= 3.31D-04

 Cycle   9  Pass 1  IDiag  1:
 RMSU=  6.81D-06    CP:  7.07D-01  9.88D-01  9.33D-01  3.06D-01  8.46D-01
                    CP:  9.02D-01  9.70D-01  9.98D-01
 E= -940.781311554325     Delta-E=       -0.000001030484 Rises=F Damp=F
 DIIS: error= 1.04D-05 at cycle   9 NSaved=   9.
 NSaved= 9 IEnMin= 9 EnMin= -940.781311554325     IErMin= 9 ErrMin= 1.04D-05
 ErrMax= 1.04D-05  0.00D+00 EMaxC= 1.00D-01 BMatC= 6.75D-08 BMatP= 9.70D-07
 IDIUse=1 WtCom= 1.00D+00 WtEn= 0.00D+00
 Coeff-Com:  0.790D-04-0.370D-03-0.323D-02 0.953D-03-0.101D-01 0.530D-03
 Coeff-Com:  0.695D-01 0.254D+00 0.689D+00
 Coeff:      0.790D-04-0.370D-03-0.323D-02 0.953D-03-0.101D-01 0.530D-03
 Coeff:      0.695D-01 0.254D+00 0.689D+00
 Gap=     0.172 Goal=   None    Shift=    0.000
 RMSDP=4.43D-06 MaxDP=1.85D-04 DE=-1.03D-06 OVMax= 1.41D-04

 Cycle  10  Pass 1  IDiag  1:
 RMSU=  3.11D-06    CP:  7.07D-01  9.88D-01  9.34D-01  3.05D-01  8.46D-01
                    CP:  9.13D-01  9.82D-01  1.06D+00  1.02D+00
 E= -940.781311634363     Delta-E=       -0.000000080038 Rises=F Damp=F
 DIIS: error= 6.39D-06 at cycle  10 NSaved=  10.
 NSaved=10 IEnMin=10 EnMin= -940.781311634363     IErMin=10 ErrMin= 6.39D-06
 ErrMax= 6.39D-06  0.00D+00 EMaxC= 1.00D-01 BMatC= 1.72D-08 BMatP= 6.75D-08
 IDIUse=1 WtCom= 1.00D+00 WtEn= 0.00D+00
 Coeff-Com: -0.188D-05-0.211D-04-0.133D-02 0.583D-03-0.450D-02-0.898D-02
 Coeff-Com: -0.154D-01 0.473D-01 0.374D+00 0.609D+00
 Coeff:     -0.188D-05-0.211D-04-0.133D-02 0.583D-03-0.450D-02-0.898D-02
 Coeff:     -0.154D-01 0.473D-01 0.374D+00 0.609D+00
 Gap=     0.172 Goal=   None    Shift=    0.000
 RMSDP=1.90D-06 MaxDP=1.29D-04 DE=-8.00D-08 OVMax= 7.26D-05

 Cycle  11  Pass 1  IDiag  1:
 RMSU=  1.25D-06    CP:  7.07D-01  9.88D-01  9.34D-01  3.05D-01  8.47D-01
                    CP:  9.11D-01  9.89D-01  1.10D+00  1.11D+00  8.89D-01
 E= -940.781311655961     Delta-E=       -0.000000021599 Rises=F Damp=F
 DIIS: error= 2.12D-06 at cycle  11 NSaved=  11.
 NSaved=11 IEnMin=11 EnMin= -940.781311655961     IErMin=11 ErrMin= 2.12D-06
 ErrMax= 2.12D-06  0.00D+00 EMaxC= 1.00D-01 BMatC= 2.24D-09 BMatP= 1.72D-08
 IDIUse=1 WtCom= 1.00D+00 WtEn= 0.00D+00
 Coeff-Com: -0.142D-04 0.533D-04-0.250D-04 0.790D-04-0.157D-03-0.415D-02
 Coeff-Com: -0.194D-01-0.205D-01 0.702D-01 0.303D+00 0.671D+00
 Coeff:     -0.142D-04 0.533D-04-0.250D-04 0.790D-04-0.157D-03-0.415D-02
 Coeff:     -0.194D-01-0.205D-01 0.702D-01 0.303D+00 0.671D+00
 Gap=     0.172 Goal=   None    Shift=    0.000
 RMSDP=7.16D-07 MaxDP=2.83D-05 DE=-2.16D-08 OVMax= 2.23D-05

 Cycle  12  Pass 1  IDiag  1:
 RMSU=  3.62D-07    CP:  7.07D-01  9.88D-01  9.34D-01  3.05D-01  8.47D-01
                    CP:  9.12D-01  9.88D-01  1.11D+00  1.14D+00  1.01D+00
                    CP:  8.19D-01
 E= -940.781311658934     Delta-E=       -0.000000002973 Rises=F Damp=F
 DIIS: error= 8.69D-07 at cycle  12 NSaved=  12.
 NSaved=12 IEnMin=12 EnMin= -940.781311658934     IErMin=12 ErrMin= 8.69D-07
 ErrMax= 8.69D-07  0.00D+00 EMaxC= 1.00D-01 BMatC= 4.21D-10 BMatP= 2.24D-09
 IDIUse=1 WtCom= 1.00D+00 WtEn= 0.00D+00
 Coeff-Com: -0.829D-05 0.343D-04 0.174D-03-0.324D-04 0.488D-03-0.107D-02
 Coeff-Com: -0.826D-02-0.186D-01-0.181D-01 0.696D-01 0.355D+00 0.620D+00
 Coeff:     -0.829D-05 0.343D-04 0.174D-03-0.324D-04 0.488D-03-0.107D-02
 Coeff:     -0.826D-02-0.186D-01-0.181D-01 0.696D-01 0.355D+00 0.620D+00
 Gap=     0.172 Goal=   None    Shift=    0.000
 RMSDP=2.52D-07 MaxDP=2.30D-05 DE=-2.97D-09 OVMax= 1.43D-05

 Cycle  13  Pass 1  IDiag  1:
 RMSU=  1.30D-07    CP:  7.07D-01  9.88D-01  9.34D-01  3.05D-01  8.47D-01
                    CP:  9.12D-01  9.89D-01  1.11D+00  1.14D+00  1.01D+00
                    CP:  8.86D-01  9.64D-01
 E= -940.781311659600     Delta-E=       -0.000000000666 Rises=F Damp=F
 DIIS: error= 3.46D-07 at cycle  13 NSaved=  13.
 NSaved=13 IEnMin=13 EnMin= -940.781311659600     IErMin=13 ErrMin= 3.46D-07
 ErrMax= 3.46D-07  0.00D+00 EMaxC= 1.00D-01 BMatC= 4.88D-11 BMatP= 4.21D-10
 IDIUse=1 WtCom= 1.00D+00 WtEn= 0.00D+00
 Coeff-Com: -0.220D-05 0.969D-05 0.897D-04-0.278D-04 0.245D-03 0.338D-04
 Coeff-Com: -0.105D-02-0.557D-02-0.174D-01-0.105D-01 0.640D-01 0.279D+00
 Coeff-Com:  0.691D+00
 Coeff:     -0.220D-05 0.969D-05 0.897D-04-0.278D-04 0.245D-03 0.338D-04
 Coeff:     -0.105D-02-0.557D-02-0.174D-01-0.105D-01 0.640D-01 0.279D+00
 Coeff:      0.691D+00
 Gap=     0.172 Goal=   None    Shift=    0.000
 RMSDP=8.48D-08 MaxDP=7.66D-06 DE=-6.66D-10 OVMax= 4.21D-06

 Cycle  14  Pass 1  IDiag  1:
 RMSU=  5.13D-08    CP:  7.07D-01  9.88D-01  9.34D-01  3.05D-01  8.47D-01
                    CP:  9.12D-01  9.89D-01  1.11D+00  1.14D+00  1.02D+00
                    CP:  9.14D-01  1.01D+00  9.81D-01
 E= -940.781311659622     Delta-E=       -0.000000000022 Rises=F Damp=F
 DIIS: error= 1.12D-07 at cycle  14 NSaved=  14.
 NSaved=14 IEnMin=14 EnMin= -940.781311659622     IErMin=14 ErrMin= 1.12D-07
 ErrMax= 1.12D-07  0.00D+00 EMaxC= 1.00D-01 BMatC= 4.22D-12 BMatP= 4.88D-11
 IDIUse=1 WtCom= 1.00D+00 WtEn= 0.00D+00
 Coeff-Com: -0.286D-06 0.127D-05 0.209D-04-0.881D-05 0.521D-04 0.972D-04
 Coeff-Com:  0.325D-03-0.407D-03-0.484D-02-0.997D-02-0.902D-02 0.520D-01
 Coeff-Com:  0.270D+00 0.702D+00
 Coeff:     -0.286D-06 0.127D-05 0.209D-04-0.881D-05 0.521D-04 0.972D-04
 Coeff:      0.325D-03-0.407D-03-0.484D-02-0.997D-02-0.902D-02 0.520D-01
 Coeff:      0.270D+00 0.702D+00
 Gap=     0.172 Goal=   None    Shift=    0.000
 RMSDP=2.85D-08 MaxDP=1.43D-06 DE=-2.18D-11 OVMax= 1.58D-06

 Cycle  15  Pass 1  IDiag  1:
 RMSU=  1.48D-08    CP:  7.07D-01  9.88D-01  9.34D-01  3.05D-01  8.47D-01
                    CP:  9.12D-01  9.89D-01  1.11D+00  1.14D+00  1.02D+00
                    CP:  9.19D-01  1.01D+00  1.07D+00  1.09D+00
 E= -940.781311659696     Delta-E=       -0.000000000074 Rises=F Damp=F
 DIIS: error= 5.72D-08 at cycle  15 NSaved=  15.
 NSaved=15 IEnMin=15 EnMin= -940.781311659696     IErMin=15 ErrMin= 5.72D-08
 ErrMax= 5.72D-08  0.00D+00 EMaxC= 1.00D-01 BMatC= 1.00D-12 BMatP= 4.22D-12
 IDIUse=1 WtCom= 1.00D+00 WtEn= 0.00D+00
 Coeff-Com:  0.116D-06-0.542D-06 0.863D-07-0.153D-05-0.207D-05 0.523D-04
 Coeff-Com:  0.314D-03 0.500D-03-0.460D-03-0.413D-02-0.147D-01-0.990D-02
 Coeff-Com:  0.477D-01 0.394D+00 0.587D+00
 Coeff:      0.116D-06-0.542D-06 0.863D-07-0.153D-05-0.207D-05 0.523D-04
 Coeff:      0.314D-03 0.500D-03-0.460D-03-0.413D-02-0.147D-01-0.990D-02
 Coeff:      0.477D-01 0.394D+00 0.587D+00
 Gap=     0.172 Goal=   None    Shift=    0.000
 RMSDP=1.23D-08 MaxDP=7.86D-07 DE=-7.41D-11 OVMax= 7.32D-07

 Cycle  16  Pass 1  IDiag  1:
 RMSU=  6.26D-09    CP:  7.07D-01  9.88D-01  9.34D-01  3.05D-01  8.47D-01
                    CP:  9.12D-01  9.89D-01  1.11D+00  1.14D+00  1.02D+00
                    CP:  9.18D-01  1.02D+00  1.09D+00  1.20D+00  8.51D-01
 E= -940.781311659552     Delta-E=        0.000000000144 Rises=F Damp=F
 DIIS: error= 2.40D-08 at cycle  16 NSaved=  16.
 NSaved=16 IEnMin=15 EnMin= -940.781311659696     IErMin=16 ErrMin= 2.40D-08
 ErrMax= 2.40D-08  0.00D+00 EMaxC= 1.00D-01 BMatC= 1.03D-13 BMatP= 1.00D-12
 IDIUse=1 WtCom= 1.00D+00 WtEn= 0.00D+00
 Coeff-Com:  0.123D-06-0.538D-06-0.261D-05 0.576D-06-0.769D-05 0.131D-04
 Coeff-Com:  0.102D-03 0.295D-03 0.453D-03-0.512D-03-0.601D-02-0.112D-01
 Coeff-Com: -0.149D-01 0.945D-01 0.284D+00 0.653D+00
 Coeff:      0.123D-06-0.538D-06-0.261D-05 0.576D-06-0.769D-05 0.131D-04
 Coeff:      0.102D-03 0.295D-03 0.453D-03-0.512D-03-0.601D-02-0.112D-01
 Coeff:     -0.149D-01 0.945D-01 0.284D+00 0.653D+00
 Gap=     0.172 Goal=   None    Shift=    0.000
 RMSDP=4.60D-09 MaxDP=3.14D-07 DE= 1.44D-10 OVMax= 2.57D-07

 SCF Done:  E(RMN15) =  -940.781311660     A.U. after   16 cycles
            NFock= 16  Conv=0.46D-08     -V/T= 2.0038
 KE= 9.372262153646D+02 PE=-5.794880491086D+03 EE= 2.113010075111D+03
 Leave Link  502 at Tue Dec  5 11:29:41 2023, MaxMem=  2147483648 cpu:            5114.7 elap:             198.2
 (Enter /opt/gaussian/g16-c01/g16/l601.exe)
 Copying SCF densities to generalized density rwf, IOpCl= 0 IROHF=0.

 **********************************************************************

            Population analysis using the SCF Density.

 **********************************************************************

 Orbital symmetries:
       Occupied  (A) (A) (A) (A) (A) (A) (A) (A) (A) (A) (A) (A)
                 (A) (A) (A) (A) (A) (A) (A) (A) (A) (A) (A) (A)
                 (A) (A) (A) (A) (A) (A) (A) (A) (A) (A) (A) (A)
                 (A) (A) (A) (A) (A) (A) (A) (A) (A) (A) (A) (A)
                 (A) (A) (A) (A) (A) (A) (A) (A) (A) (A) (A) (A)
                 (A) (A) (A) (A) (A) (A) (A) (A) (A) (A) (A) (A)
                 (A) (A) (A) (A) (A) (A) (A) (A)
       Virtual   (A) (A) (A) (A) (A) (A) (A) (A) (A) (A) (A) (A)
                 (A) (A) (A) (A) (A) (A) (A) (A) (A) (A) (A) (A)
                 (A) (A) (A) (A) (A) (A) (A) (A) (A) (A) (A) (A)
                 (A) (A) (A) (A) (A) (A) (A) (A) (A) (A) (A) (A)
                 (A) (A) (A) (A) (A) (A) (A) (A) (A) (A) (A) (A)
                 (A) (A) (A) (A) (A) (A) (A) (A) (A) (A) (A) (A)
                 (A) (A) (A) (A) (A) (A) (A) (A) (A) (A) (A) (A)
                 (A) (A) (A) (A) (A) (A) (A) (A) (A) (A) (A) (A)
                 (A) (A) (A) (A) (A) (A) (A) (A) (A) (A) (A) (A)
                 (A) (A) (A) (A) (A) (A) (A) (A) (A) (A) (A) (A)
                 (A) (A) (A) (A) (A) (A) (A) (A) (A) (A) (A) (A)
                 (A) (A) (A) (A) (A) (A) (A) (A) (A) (A) (A) (A)
                 (A) (A) (A) (A) (A) (A) (A) (A) (A) (A) (A) (A)
                 (A) (A) (A) (A) (A) (A) (A) (A) (A) (A) (A) (A)
                 (A) (A) (A) (A) (A) (A) (A) (A) (A) (A) (A) (A)
                 (A) (A) (A) (A) (A) (A) (A) (A) (A) (A) (A) (A)
                 (A) (A) (A) (A) (A) (A) (A) (A) (A) (A) (A) (A)
                 (A) (A) (A) (A) (A) (A) (A) (A) (A) (A) (A) (A)
                 (A) (A) (A) (A) (A) (A) (A) (A) (A) (A) (A) (A)
                 (A) (A) (A) (A) (A) (A) (A) (A) (A) (A) (A) (A)
                 (A) (A) (A) (A) (A) (A) (A) (A) (A) (A) (A) (A)
                 (A) (A) (A) (A) (A) (A) (A) (A) (A) (A) (A) (A)
                 (A) (A) (A) (A) (A) (A) (A) (A) (A) (A) (A) (A)
                 (A) (A) (A) (A) (A) (A) (A) (A) (A) (A) (A) (A)
                 (A) (A) (A) (A) (A) (A) (A) (A) (A) (A) (A) (A)
                 (A) (A) (A) (A) (A) (A) (A) (A) (A) (A) (A) (A)
                 (A) (A) (A) (A) (A) (A) (A) (A) (A) (A) (A) (A)
                 (A) (A) (A) (A) (A) (A) (A) (A) (A) (A) (A) (A)
                 (A) (A) (A) (A) (A) (A) (A) (A) (A) (A) (A) (A)
                 (A) (A) (A) (A) (A) (A) (A) (A) (A) (A) (A) (A)
                 (A) (A) (A) (A) (A) (A) (A) (A) (A) (A) (A) (A)
                 (A) (A) (A) (A) (A) (A) (A) (A) (A) (A) (A) (A)
                 (A) (A) (A) (A) (A) (A) (A) (A) (A) (A) (A) (A)
                 (A) (A) (A) (A) (A) (A) (A) (A) (A) (A) (A) (A)
                 (A) (A) (A) (A) (A) (A) (A) (A) (A) (A) (A) (A)
                 (A) (A) (A) (A) (A) (A) (A) (A) (A) (A) (A) (A)
                 (A) (A) (A) (A) (A) (A) (A) (A) (A) (A) (A) (A)
                 (A) (A) (A) (A) (A) (A) (A) (A) (A) (A) (A) (A)
                 (A) (A) (A) (A) (A) (A) (A) (A) (A) (A) (A) (A)
                 (A) (A) (A) (A) (A) (A) (A) (A) (A) (A) (A) (A)
                 (A) (A) (A) (A) (A) (A) (A) (A) (A) (A) (A) (A)
                 (A) (A) (A) (A) (A) (A) (A) (A) (A) (A) (A) (A)
                 (A) (A) (A) (A) (A) (A) (A) (A) (A) (A) (A) (A)
                 (A) (A) (A) (A) (A) (A) (A) (A) (A) (A) (A) (A)
                 (A) (A) (A) (A) (A) (A) (A) (A) (A) (A) (A) (A)
                 (A) (A) (A) (A) (A) (A) (A)
 The electronic state is 1-A.
 Alpha  occ. eigenvalues --  -18.77116 -14.11542 -10.15146 -10.09224 -10.06215
 Alpha  occ. eigenvalues --  -10.06022 -10.05960 -10.05797 -10.05794 -10.05737
 Alpha  occ. eigenvalues --  -10.05631 -10.05618 -10.05437 -10.05326 -10.05288
 Alpha  occ. eigenvalues --  -10.05115 -10.05067 -10.05010 -10.05004 -10.04753
 Alpha  occ. eigenvalues --  -10.04057 -10.02175 -10.01907  -1.07656  -0.97380
 Alpha  occ. eigenvalues --   -0.95665  -0.91309  -0.89001  -0.85992  -0.83981
 Alpha  occ. eigenvalues --   -0.82380  -0.79708  -0.78707  -0.76322  -0.74227
 Alpha  occ. eigenvalues --   -0.73021  -0.70251  -0.68298  -0.68062  -0.66576
 Alpha  occ. eigenvalues --   -0.64541  -0.60696  -0.59830  -0.58699  -0.56826
 Alpha  occ. eigenvalues --   -0.56252  -0.55006  -0.53373  -0.52042  -0.50188
 Alpha  occ. eigenvalues --   -0.49769  -0.49136  -0.48579  -0.48163  -0.47572
 Alpha  occ. eigenvalues --   -0.46740  -0.46155  -0.45892  -0.44901  -0.44273
 Alpha  occ. eigenvalues --   -0.43728  -0.43561  -0.42338  -0.41980  -0.41607
 Alpha  occ. eigenvalues --   -0.41181  -0.40829  -0.39974  -0.39545  -0.37984
 Alpha  occ. eigenvalues --   -0.37820  -0.37478  -0.37104  -0.34713  -0.32569
 Alpha  occ. eigenvalues --   -0.30129  -0.29812  -0.29371  -0.27566  -0.23003
 Alpha virt. eigenvalues --   -0.05845  -0.01866  -0.00172   0.01700   0.02426
 Alpha virt. eigenvalues --    0.03379   0.03812   0.04318   0.04791   0.05115
 Alpha virt. eigenvalues --    0.05379   0.06052   0.06379   0.06569   0.06856
 Alpha virt. eigenvalues --    0.07399   0.07810   0.08198   0.08297   0.08628
 Alpha virt. eigenvalues --    0.09013   0.09732   0.10157   0.10415   0.10524
 Alpha virt. eigenvalues --    0.10954   0.11576   0.12070   0.12140   0.12261
 Alpha virt. eigenvalues --    0.12550   0.12783   0.12963   0.13150   0.13553
 Alpha virt. eigenvalues --    0.13819   0.14352   0.14467   0.14935   0.15268
 Alpha virt. eigenvalues --    0.15309   0.15553   0.15598   0.15926   0.16107
 Alpha virt. eigenvalues --    0.16473   0.16595   0.16831   0.16940   0.17537
 Alpha virt. eigenvalues --    0.17676   0.17807   0.18022   0.18458   0.18677
 Alpha virt. eigenvalues --    0.18853   0.19156   0.19276   0.19518   0.19724
 Alpha virt. eigenvalues --    0.19973   0.20558   0.20887   0.21163   0.21407
 Alpha virt. eigenvalues --    0.21676   0.21979   0.22168   0.22365   0.22505
 Alpha virt. eigenvalues --    0.22811   0.22914   0.23369   0.23424   0.24038
 Alpha virt. eigenvalues --    0.24558   0.24644   0.25060   0.25463   0.25808
 Alpha virt. eigenvalues --    0.25992   0.26203   0.26682   0.27153   0.27303
 Alpha virt. eigenvalues --    0.27490   0.27791   0.27941   0.28278   0.28429
 Alpha virt. eigenvalues --    0.28751   0.29003   0.29244   0.29739   0.30142
 Alpha virt. eigenvalues --    0.30265   0.30498   0.30505   0.30950   0.31131
 Alpha virt. eigenvalues --    0.31183   0.31855   0.31918   0.32475   0.32678
 Alpha virt. eigenvalues --    0.32769   0.33362   0.33757   0.34079   0.34410
 Alpha virt. eigenvalues --    0.34616   0.35049   0.35315   0.35648   0.35842
 Alpha virt. eigenvalues --    0.36155   0.36279   0.36913   0.37314   0.37460
 Alpha virt. eigenvalues --    0.37505   0.37942   0.38177   0.38264   0.38749
 Alpha virt. eigenvalues --    0.39515   0.39880   0.40451   0.41039   0.41249
 Alpha virt. eigenvalues --    0.41702   0.42248   0.42589   0.43511   0.44261
 Alpha virt. eigenvalues --    0.44989   0.45277   0.46444   0.46936   0.47436
 Alpha virt. eigenvalues --    0.47902   0.48616   0.49332   0.50101   0.50411
 Alpha virt. eigenvalues --    0.51173   0.52187   0.52420   0.53235   0.53436
 Alpha virt. eigenvalues --    0.54551   0.54822   0.55120   0.56266   0.57116
 Alpha virt. eigenvalues --    0.57493   0.58070   0.58283   0.58947   0.59198
 Alpha virt. eigenvalues --    0.60230   0.60786   0.61344   0.61642   0.62029
 Alpha virt. eigenvalues --    0.62622   0.63129   0.63671   0.63944   0.64220
 Alpha virt. eigenvalues --    0.64811   0.64952   0.65076   0.65840   0.66234
 Alpha virt. eigenvalues --    0.66697   0.67232   0.67521   0.67728   0.67999
 Alpha virt. eigenvalues --    0.68081   0.68616   0.68989   0.69252   0.69563
 Alpha virt. eigenvalues --    0.69784   0.70076   0.70775   0.71302   0.72173
 Alpha virt. eigenvalues --    0.72650   0.73083   0.74052   0.74371   0.74645
 Alpha virt. eigenvalues --    0.75326   0.75991   0.76282   0.76970   0.77309
 Alpha virt. eigenvalues --    0.78351   0.78725   0.79468   0.79673   0.80788
 Alpha virt. eigenvalues --    0.80816   0.81287   0.82195   0.82241   0.82873
 Alpha virt. eigenvalues --    0.83107   0.83761   0.84138   0.84794   0.85395
 Alpha virt. eigenvalues --    0.86167   0.87919   0.88323   0.88503   0.89390
 Alpha virt. eigenvalues --    0.90046   0.91164   0.92066   0.92488   0.92580
 Alpha virt. eigenvalues --    0.93601   0.95071   0.95341   0.95988   0.97036
 Alpha virt. eigenvalues --    0.97146   0.97529   0.97697   0.98186   0.98342
 Alpha virt. eigenvalues --    0.98892   0.99373   1.00373   1.01203   1.01678
 Alpha virt. eigenvalues --    1.02240   1.02525   1.03528   1.03714   1.04183
 Alpha virt. eigenvalues --    1.04888   1.05517   1.05804   1.06632   1.07314
 Alpha virt. eigenvalues --    1.09456   1.09654   1.10984   1.11504   1.13352
 Alpha virt. eigenvalues --    1.13935   1.14566   1.15111   1.17043   1.17162
 Alpha virt. eigenvalues --    1.17812   1.18243   1.19157   1.20301   1.21544
 Alpha virt. eigenvalues --    1.22189   1.24837   1.26931   1.28705   1.29137
 Alpha virt. eigenvalues --    1.30936   1.31753   1.33617   1.36115   1.36791
 Alpha virt. eigenvalues --    1.37797   1.39089   1.42278   1.43274   1.45488
 Alpha virt. eigenvalues --    1.45837   1.46536   1.47038   1.47293   1.47708
 Alpha virt. eigenvalues --    1.48388   1.48791   1.49299   1.49598   1.50052
 Alpha virt. eigenvalues --    1.50655   1.50850   1.51250   1.51794   1.51905
 Alpha virt. eigenvalues --    1.53134   1.53968   1.54764   1.55886   1.56126
 Alpha virt. eigenvalues --    1.56913   1.56980   1.58123   1.59302   1.60359
 Alpha virt. eigenvalues --    1.60654   1.61408   1.61724   1.62398   1.63254
[...]
 ,-0.00000565,0.00000482,-0.00010963,0.00020366,-0.00041048,0.00000832,
 0.00000141,-0.00001798,-0.00000098,-0.00001794,-0.00003452,-0.00000345
 ,0.00000127,0.00000104,0.00000004,-0.00000508,-0.00000103,-0.00228551,
 0.00178930,-0.00322287,0.00014115,0.00107610,0.00188209,-0.00124914,-0
 .05545436,-0.05807344,0.00000098,0.00000184,-0.00000249,-0.00000030,0.
 00000099,-0.00000019,0.00000180,-0.00000003,-0.00000185,-0.00000083,0.
 00000184,0.00000114,0.00019695,-0.00051243,0.00039065,-0.00000048,0.00
 000878,0.00000091,0.00000889,0.00000873,0.00000639,-0.00000516,-0.0000
 0599,0.00005147,0.00000075,0.00000010,-0.00000041,0.00000165,0.0000029
 6,0.00000176,0.00003720,-0.00012961,-0.00015126,-0.00024991,0.00018270
 ,0.00017538,-0.00017793,0.00136219,0.00062769,0.00012924,-0.00001628,-
 0.00007441,-0.00021006,-0.00057677,-0.00033382,-0.00007186,-0.00024518
 ,0.00016818,0.00019877,-0.00043844,-0.00137591,-0.00218244,-0.02727941
 ,-0.00457063,0.00255360,0.05764288,0.06022213,-0.00008023,-0.00004732,
 0.00003150,-0.00010987,-0.00002108,-0.00003964,0.00011304,0.00032157,-
 0.00008467,0.00098556,0.00075454,0.00015915,0.00006763,0.00001829,0.00
 000211,0.00008971,-0.00009019,-0.00006318,-0.00207115,0.00399891,0.000
 65646,-0.00002035,0.00010214,0.00000579,-0.00007514,0.00029490,0.00000
 298,0.00242309,0.00212963,-0.00012349,-0.00002892,0.00000424,0.0000090
 0,0.00016114,0.00006102,0.00001138,-0.00052033,-0.00106983,0.00013775,
 -0.00041666,0.00022812,-0.00007160,0.00003225,-0.00000100,-0.00001229,
 -0.01827195,-0.01582056,0.00334308,-0.00001482,-0.00000274,0.00000203,
 -0.00001306,-0.00000373,-0.00000169,-0.00001007,-0.00000361,0.00000342
 ,-0.26672135,-0.12109314,0.02956298,0.00029093,0.00002857,-0.00003075,
 0.00111353,0.00124008,-0.00037339,-0.00002781,-0.00039548,0.00002511,0
 .00001747,0.00000525,0.00002337,-0.00000164,-0.00002034,0.00000101,-0.
 00000155,0.00006035,0.00001371,-0.00011208,-0.00005837,0.00001235,0.00
 000675,-0.00001528,-0.00000089,0.00086400,0.00024723,-0.00060008,-0.00
 000961,-0.00000522,-0.00000138,0.00000400,0.00000177,0.00000122,0.0000
 0695,0.00000596,-0.00000052,-0.00001010,-0.00000258,0.00000129,0.00000
 503,0.00000086,-0.00000134,0.00000766,0.00000114,-0.00000431,-0.000007
 56,-0.00000227,-0.00000135,0.00000372,-0.00000001,0.00000083,0.0000047
 4,0.00000007,0.00000105,0.28222563,-0.00000291,0.00004909,-0.00001901,
 -0.00000108,0.00001518,-0.00000571,0.00080878,-0.00029055,-0.00009080,
 0.00196853,-0.00499412,0.00053046,-0.00000073,-0.00000568,-0.00000551,
 -0.00023215,-0.00001827,-0.00004652,0.00305491,-0.00127527,0.00065863,
 0.00008974,-0.00014814,0.00002928,-0.00164796,-0.00008666,0.00018104,-
 0.02690866,-0.01075913,0.00345202,-0.00001575,0.00006833,-0.00000080,-
 0.00003094,-0.00004082,0.00004244,0.00024857,0.00061408,-0.00007051,0.
 00020817,0.00003506,-0.00008961,0.00025755,-0.00045017,0.00000669,0.01
 516532,0.01124252,-0.00178560,0.00000105,-0.00000041,0.00000033,0.0000
 0207,0.00000054,0.00000055,0.,0.00000044,-0.00000008,-0.12223574,-0.12
 666447,0.01778783,0.00002040,0.00008257,-0.00001524,-0.00174325,0.0015
 2722,-0.00015672,0.00032840,0.00007157,-0.00003901,-0.00000239,0.00000
 065,-0.00000420,-0.00000607,0.00001152,-0.00000119,-0.00000179,-0.0000
 2261,0.00002011,0.00006412,0.00003589,-0.00000368,-0.00013770,-0.00008
 427,0.00001552,-0.00051909,0.00075709,-0.00051518,-0.00000079,0.000000
 61,0.00000026,0.00000088,-0.00000030,0.00000148,0.00000096,-0.00000014
 ,-0.00000158,0.00000008,-0.00000013,-0.00000066,-0.00000035,0.00000069
 ,0.00000032,0.00000031,-0.00000020,-0.00000034,0.00000002,-0.00000009,
 0.00000023,0.00000008,-0.00000038,-0.00000008,-0.00000025,0.00000084,0
 .00000008,0.12998869,0.13043566,0.00000064,-0.00003301,-0.00001479,0.0
 0000668,0.00002454,-0.00002021,-0.00012225,-0.00006628,-0.00056121,0.0
 0004675,0.00063925,0.00358031,-0.00000437,-0.00000609,0.00000199,-0.00
 004140,-0.00007920,-0.00076534,0.00075000,0.00059954,0.00959142,-0.000
 04918,0.00002552,0.00014011,0.00016742,0.00000534,0.00021055,0.0022967
 5,0.00099578,0.00279790,0.00001933,0.00000035,0.00010309,0.00005643,0.
 00002217,0.00011339,0.00001952,0.00004694,0.00002953,-0.00002310,-0.00
 007979,-0.00081456,-0.00003382,0.00003387,-0.00006743,0.00071905,0.000
 88665,0.00530051,0.00000124,-0.00000057,0.00000068,0.00000168,0.000000
 39,0.00000067,0.00000061,0.00000159,0.00000088,0.02966694,0.01764910,-
 0.04146414,-0.00002807,-0.00001504,-0.00002342,-0.00013034,-0.00041012
 ,-0.00206046,-0.00003385,0.00002047,-0.00011270,-0.00000603,-0.0000034
 4,0.00000824,-0.00000751,-0.00000183,0.00000900,0.00002273,0.00001396,
 0.00021495,0.00000134,0.00000173,-0.00000029,0.00000918,0.00000710,-0.
 00002647,-0.00053717,-0.00057983,-0.00587710,0.00000119,0.00000061,0.0
 0000021,0.00000058,0.00000005,-0.00000208,-0.00000071,0.00000008,0.000
 00066,0.00000092,-0.00000008,-0.00000022,0.00000002,-0.00000137,0.0000
 0041,-0.00000089,0.00000083,-0.00000035,0.00000083,0.00000023,0.000000
 20,0.00000013,-0.00000098,-0.00000198,-0.00000005,-0.00000029,0.000000
 47,-0.03268520,-0.01980434,0.02936776,0.00002218,-0.00004795,0.0000176
 1,0.00003055,-0.00002087,0.00002054,0.00057224,0.00122713,-0.00013331,
 -0.00452042,0.00184234,0.00076907,-0.00001307,-0.00000038,-0.00000142,
 0.00001699,0.00027567,-0.00001411,-0.00017753,0.00009701,-0.00000190,0
 .00012936,-0.00028572,0.00002339,0.00337141,0.02678207,-0.00221802,-0.
 00115760,0.00021592,0.00001765,0.00017156,-0.00054809,0.00003031,-0.00
 004595,0.00004633,-0.00004908,-0.00013705,0.00010453,0.00000035,0.0000
 8494,0.00019540,-0.00002620,0.00135594,0.00161867,-0.00059420,-0.00025
 839,-0.00004823,0.00004333,0.00000026,0.00000024,-0.00000125,0.0000028
 0,0.00000097,0.00000037,0.00000105,0.00000039,-0.00000047,0.00025213,-
 0.00024359,-0.00009115,-0.05722044,0.00436263,0.00145703,-0.00412579,-
 0.00230324,0.00113451,0.00489987,-0.02700286,0.00217635,0.00000020,0.0
 0000975,0.00000173,-0.00002266,-0.00000211,0.00002221,-0.00004130,0.00
 002448,-0.00000906,0.00000252,-0.00000278,0.00000188,-0.00019646,-0.00
 098828,0.00012278,0.00001327,0.00000490,0.00000581,0.00000363,-0.00000
 004,-0.00000001,-0.00000166,0.00000068,-0.00000313,-0.00000315,-0.0000
 0088,0.00000315,0.00000247,0.00000068,-0.00000027,-0.00000053,-0.00000
 211,-0.00000021,-0.00000211,0.00000057,0.00000181,0.00000156,0.0000007
 5,0.00000003,-0.00000090,0.00000059,-0.00000055,-0.00000034,-0.0000020
 5,-0.00000037,-0.00000020,0.00007837,-0.00000330,0.05604301,0.00006719
 ,0.00006798,-0.00004169,0.00008406,0.00002649,0.00002220,-0.00060091,-
 0.00055898,0.00011330,0.00265355,0.00065915,0.00024061,-0.00004931,-0.
 00002073,-0.00000204,-0.00010030,0.00017161,0.00000671,0.00030363,-0.0
 0009038,-0.00002461,0.00007187,0.00001451,-0.00001114,-0.00220580,-0.0
 1219436,0.00150836,0.00014090,0.00055711,-0.00012833,0.00039007,0.0000
 7415,-0.00004746,-0.00012941,-0.00009535,0.00001527,-0.00010104,-0.000
 04239,0.00001416,0.00009307,0.00002391,0.00000778,-0.00180480,0.000935
 75,-0.00024360,0.00005642,0.00001229,0.00000575,0.00001214,0.00000362,
 -0.00000073,0.00000983,0.00000347,0.00000142,0.00000817,0.00000355,-0.
 00000241,-0.00003621,-0.00000647,-0.00007831,0.00448296,-0.33908158,0.
 02499419,-0.00289403,0.00075920,0.00075754,0.00337089,-0.01061945,0.00
 092713,-0.00001488,-0.00000510,-0.00001325,0.00004374,-0.00002367,0.00
 002487,0.00002401,-0.00002658,-0.00001032,0.00000823,-0.00000196,-0.00
 000390,0.00100250,0.00021372,-0.00008708,0.00000794,-0.00002569,0.0000
 0892,0.00000702,0.00000369,0.00000170,-0.00000220,-0.00000293,0.000001
 43,-0.00000529,-0.00000548,-0.00000251,0.00000786,0.00000108,-0.000000
 98,-0.00000338,0.00000174,0.00000132,-0.00000604,-0.00000165,0.0000023
 7,0.00000595,0.00000103,0.00000096,-0.00000263,-0.00000153,-0.00000102
 ,-0.00000355,0.00000248,0.00000051,-0.00002348,-0.00000205,0.00000511,
 -0.00471467,0.35924287,-0.00002408,0.00002915,-0.00002878,-0.00002240,
 0.00000287,-0.00002116,0.00000201,-0.00004161,0.00022578,0.00072028,0.
 00028167,0.00611406,0.00000911,0.00000618,0.00000259,0.00001966,-0.000
 00512,0.00013642,-0.00001080,-0.00001452,-0.00011191,-0.00000172,0.000
 00550,-0.00001436,0.00021337,-0.00100894,0.00364178,0.00001672,-0.0001
 3071,-0.00078819,-0.00004844,0.00000629,-0.00009651,0.00001527,-0.0000
 3333,0.00005209,0.00001262,-0.00000489,0.00001581,-0.00000889,-0.00000
 942,0.00001321,-0.00031123,-0.00053177,-0.00383697,0.00002782,0.000018
 31,0.00015589,-0.00000284,-0.00000126,0.00000457,-0.00000127,-0.000002
 64,0.00000041,-0.00000213,-0.00000057,0.00000208,-0.00010170,-0.000061
 10,-0.00096829,0.00144769,0.02505101,-0.03832021,0.00117826,0.00070048
 ,0.00658404,-0.00037200,0.00354166,0.00363273,-0.00000160,0.00000608,0
 .00000618,0.00003285,0.00003003,0.00022138,-0.00000677,-0.00000890,-0.
 00011742,-0.00000139,0.00000082,-0.00000041,-0.00004800,0.00008063,0.0
 0021824,0.00000533,0.00000878,0.00008581,-0.00000055,-0.00000109,-0.00
 000039,0.00000061,0.00000134,-0.00000482,0.00000075,0.00000117,0.00000
 238,-0.00000133,-0.00000002,0.00000032,0.00000067,-0.00000129,-0.00000
 034,0.00000073,0.00000141,-0.00000083,-0.00000101,0.00000014,-0.000000
 06,0.00000110,0.00000015,-0.00000237,0.00000077,-0.00000098,0.,0.00000
 478,-0.00000341,0.00003464,-0.00232948,-0.02763498,0.02708890,-0.00004
 643,-0.00000151,0.00001048,-0.00008239,-0.00000994,-0.00002364,-0.0005
 0955,-0.00126910,0.00019355,-0.00268154,0.00380681,0.00041467,0.000040
 98,0.00000993,-0.00000436,-0.00028947,0.00022503,-0.00001052,0.0000763
 5,-0.00008797,0.00000558,-0.00007313,-0.00006770,0.00003047,-0.0000593
 0,0.00077220,-0.00011501,-0.01877537,-0.01569743,0.00321868,-0.0000669
 8,0.00016258,0.00000204,0.00006007,0.00004659,0.00000251,0.00014253,0.
 00005896,-0.00001589,-0.00009465,-0.00001533,-0.00000192,0.00018522,-0
 .00007342,-0.00009696,0.00012289,0.00038309,-0.00004568,-0.00000879,-0
 .00000190,0.00000123,-0.00000600,-0.00000272,-0.00000117,-0.00000694,-
 0.00000336,0.00000233,0.00110473,-0.00198192,-0.00027420,0.00175277,0.
 00069667,0.00035441,-0.26473838,-0.12224393,0.02981267,0.00405999,0.00
 285561,-0.00025912,0.00000957,0.00000130,0.00001020,-0.00000435,-0.000
 01218,0.00000646,-0.00002509,0.00003106,0.00000159,-0.00000199,0.00000
 761,0.00000254,-0.00002597,-0.00003978,0.00000874,-0.00004039,0.000038
 62,0.00001826,-0.00000631,-0.00000291,-0.00000082,0.00000252,0.0000009
 4,0.00000136,0.00000458,0.00000368,-0.00000084,-0.00000621,-0.00000130
 ,0.00000064,0.00000248,0.00000105,-0.00000052,0.00000500,0.00000064,-0
 .00000262,-0.00000481,-0.00000098,-0.00000098,0.00000228,-0.00000013,0
 .00000056,0.00000257,0.00000079,0.00000053,0.00009083,0.00118820,-0.00
 008728,0.00004153,0.00016426,-0.00000457,0.27927802,-0.00004779,-0.000
 00756,0.00000531,-0.00005582,0.00000315,-0.00001896,0.00054957,0.00055
 479,-0.00006950,0.00293425,-0.00116949,0.00035073,0.00003142,0.0000105
 9,0.00000242,0.00001809,0.00002218,-0.00000519,0.00029143,0.00013005,-
 0.00002475,0.00012617,-0.00013498,-0.00000371,0.00088661,-0.00054777,-
 0.00008950,0.01330841,0.00996617,-0.00169077,0.00006694,-0.00019279,0.
 00001464,0.00010983,-0.00000498,0.00001011,-0.00029344,-0.00002658,0.0
 0002369,0.00010390,0.00020758,-0.00003264,-0.00028968,0.00007434,-0.00
 006008,-0.00050704,0.00005360,0.00003023,-0.00000586,-0.00000140,0.000
 00103,-0.00000625,-0.00000183,-0.00000068,-0.00000451,-0.00000138,0.00
 000162,0.00146875,0.00120428,-0.00054894,0.00131479,-0.00522547,0.0008
 6815,-0.12242793,-0.12934169,0.01826045,-0.02753998,-0.00981386,0.0034
 9790,0.00000658,-0.00000162,0.00000467,-0.00000361,0.00000905,0.000006
 22,0.00000885,-0.00000026,0.00000290,-0.00000592,0.00000479,0.00000033
 ,0.00006103,0.00002377,-0.00000460,-0.00002829,0.00001965,0.00001867,-
 0.00000542,-0.00000195,-0.00000066,0.00000217,0.00000070,0.00000106,0.
 00000393,0.00000309,-0.00000071,-0.00000519,-0.00000128,0.00000051,0.0
 0000205,0.00000054,-0.00000051,0.00000388,0.00000041,-0.00000215,-0.00
 000382,-0.00000127,-0.00000044,0.00000191,0.00000021,0.00000059,0.0000
 0215,0.00000018,0.00000015,-0.00077319,-0.00007419,0.00008792,-0.00127
 880,-0.00063154,0.00017661,0.13157927,0.13389403,0.00001654,0.00004357
 ,-0.00000766,-0.00001808,-0.00001028,0.00001474,0.00001780,0.00008584,
 0.00031977,0.00052168,0.00027771,0.00604481,-0.00000789,0.00000678,-0.
 00000015,0.00000273,0.00000128,-0.00007788,-0.00001811,0.00000346,0.00
 011480,0.00003655,-0.00000414,-0.00001810,-0.00011982,-0.00007123,-0.0
 0074491,0.00081644,0.00078457,0.00326354,0.00002904,-0.00000974,0.0001
 4253,-0.00004584,-0.00004697,-0.00013257,0.00001714,0.00000015,0.00000
 194,-0.00000216,-0.00001707,0.00002362,-0.00009593,-0.00007561,-0.0009
 5735,0.00002226,-0.00004072,-0.00008378,0.00000246,0.00000159,0.000000
 96,0.00000052,0.00000022,-0.00000027,-0.00000198,-0.00000026,0.0000014
 7,-0.00055561,-0.00025640,-0.00388173,0.00029908,0.00092625,0.00653181
 ,0.02980226,0.01823652,-0.03974593,0.00227906,0.00089743,0.00354758,-0
 .00000031,0.00000045,0.00000396,0.00001569,0.00001070,0.00008815,0.000
 00312,-0.00000075,0.00002681,-0.00000012,-0.00000075,-0.00000626,0.000
 00091,0.00000364,0.00003572,0.00002430,0.00001361,0.00021355,0.0000017
 4,0.00000030,0.00000067,0.00000002,-0.00000027,-0.00000187,-0.00000109
 ,-0.00000132,0.00000059,0.00000111,0.00000042,0.00000008,-0.00000019,-
 0.00000103,0.00000057,-0.00000130,0.00000082,0.00000049,0.00000051,0.0
 0000068,-0.00000050,0.00000024,-0.00000050,-0.00000184,-0.00000032,-0.
 00000020,0.00000034,0.00007409,-0.00007498,0.00023059,0.00011467,0.000
 05032,0.00013744,-0.03279738,-0.02035542,0.02893485,-0.00009503,-0.000
 00819,0.00001044,-0.00011876,0.00000257,-0.00004617,0.00001241,0.00006
 454,-0.00007407,0.00020597,-0.00074236,-0.00002469,0.00006226,0.000022
 16,0.00000379,0.00012674,-0.00026650,0.00002777,-0.00013861,0.00002719
 ,0.00001716,-0.00014649,0.00012158,-0.00000796,-0.00261363,-0.00371291
 ,0.00116592,0.00175754,-0.00073318,0.00053317,-0.00046876,-0.00019169,
 0.00001288,0.00018641,0.00002969,0.00004829,0.00010996,0.00003763,-0.0
 0000887,-0.00004635,-0.00012243,0.00000923,-0.00039266,0.00109520,-0.0
 0004959,0.00014791,0.00005361,-0.00005313,-0.00001287,-0.00000373,0.00
 000216,-0.00001242,-0.00000479,-0.00000165,-0.00000911,-0.00000424,0.0
 0000333,-0.00008647,-0.00001256,0.00002335,-0.01752146,0.01550345,0.00
 054983,0.00326752,-0.00229890,0.00023030,-0.27520426,0.12290395,0.0101
 9081,0.00001163,-0.00000778,0.00000946,-0.00007153,0.00006979,-0.00000
 462,0.00000085,0.00000888,-0.00000058,-0.00001210,0.00000839,0.0000004
 8,-0.00000645,-0.00005495,0.00001103,-0.00000626,0.00000337,-0.0000008
 6,-0.00001051,-0.00000363,-0.00000160,0.00000430,0.00000212,0.00000135
 ,0.00000836,0.00000666,-0.00000046,-0.00001018,-0.00000155,0.00000127,
 0.00000354,0.00000064,-0.00000132,0.00000798,0.00000125,-0.00000423,-0
 .00000737,-0.00000157,-0.00000113,0.00000354,0.00000054,0.00000100,0.0
 0000356,-0.00000008,0.00000047,0.00001079,0.00001240,0.00000456,0.0009
 0609,-0.00031836,-0.00040817,0.00056909,0.00040057,-0.00043385,0.28958
 486,0.00003638,0.00005119,-0.00001689,0.00005307,0.00000679,0.00001121
 ,0.00007077,0.00007547,-0.00008333,-0.00073398,-0.00065733,0.00005880,
 -0.00002717,-0.00001060,-0.00000058,0.00019113,-0.00026861,0.00001284,
 -0.00040428,0.00000134,0.00004641,-0.00006218,0.00025556,-0.00001841,-
 0.00340700,-0.00103298,0.00099386,-0.00105716,-0.00540432,0.00114280,-
 0.00032331,0.00006957,-0.00001106,-0.00010598,-0.00005198,0.00000943,0
 .00030313,0.00001594,-0.00002080,-0.00014855,-0.00022316,0.00004078,-0
 .00018179,0.00057452,-0.00002440,0.00017435,-0.00053023,-0.00000422,0.
 00000616,0.00000087,-0.00000047,0.00000567,0.00000175,0.00000100,0.000
 00434,0.00000183,-0.00000135,0.00127424,0.00023564,-0.00011543,-0.0149
 8103,0.01135705,0.00066795,0.02819051,-0.00964702,-0.00131519,0.122893
 45,-0.12699066,-0.00317184,-0.00000662,0.00000126,-0.00000465,-0.00005
 195,0.00003687,-0.00000164,-0.00000331,-0.00000022,-0.00000200,0.00000
 715,-0.00000426,-0.00000016,0.00000267,-0.00001590,0.00000793,0.000131
 63,-0.00007363,-0.00000587,0.00000403,0.00000227,0.00000085,-0.0000013
 8,-0.00000079,-0.00000020,-0.00000261,-0.00000262,-0.00000022,0.000004
 43,0.00000108,-0.00000066,-0.00000190,-0.00000022,0.00000065,-0.000003
 33,-0.00000029,0.00000158,0.00000336,0.00000091,0.00000062,-0.00000152
 ,-0.00000042,-0.00000065,-0.00000195,0.00000023,-0.00000019,-0.0000438
 7,-0.00003151,0.00001314,0.00060257,0.00065849,-0.00045374,-0.00052141
 ,0.00099875,-0.00037867,-0.13188676,0.13059934,0.00001682,0.00000354,-
 0.00001248,-0.00000005,-0.00000180,-0.00000864,-0.00007747,-0.00008658
 ,-0.00083411,-0.00003092,0.00005655,-0.00072252,-0.00000183,0.00000225
 ,0.00000173,-0.00002172,0.00006093,0.00013521,0.00005384,0.00001098,0.
 00013128,0.00002630,-0.00003326,0.00001695,0.00115167,0.00101242,0.007
 08269,0.00055544,0.00111615,0.00704764,0.00004501,-0.00002478,-0.00042
 130,-0.00000572,0.00000052,0.00000812,-0.00002597,-0.00000066,0.000038
 34,0.00001047,0.00002485,0.00000284,0.00004873,-0.00013475,0.00016095,
 -0.00006026,0.00000440,-0.00042051,0.00000033,0.00000022,0.00000187,0.
 00000058,-0.00000100,0.00000017,-0.00000024,0.00000094,0.00000124,-0.0
 0008301,-0.00000122,0.00019846,0.00309563,-0.00196054,0.00374206,-0.00
 230419,0.00132067,0.00385465,0.01017414,-0.00316940,-0.03869598,-0.000
 00212,0.00000051,0.00000176,0.00000440,-0.00001273,-0.00000367,0.00000
 049,-0.00000049,-0.00000449,0.00000164,0.00000053,0.00000677,0.0000090
 2,0.00001134,0.00007428,-0.00001196,0.00000528,-0.00001500,0.00000057,
 -0.00000020,0.00000030,0.00000013,0.00000019,-0.00000197,-0.00000072,0
 .00000003,0.00000051,0.00000019,0.00000002,0.00000015,0.00000016,-0.00
 000092,0.00000003,-0.00000080,0.00000069,0.00000015,0.00000011,0.00000
 024,0.00000013,0.00000079,-0.00000047,-0.00000132,-0.00000057,-0.00000
 045,-0.00000008,0.00000933,0.00000748,0.00007457,-0.00048710,-0.000377
 59,-0.00406373,-0.00035599,-0.00045669,-0.00402057,-0.01173512,0.00262
 277,0.02664354\\0.00000511,0.00000458,-0.00000273,0.00000263,0.0000104
 6,-0.00000650,0.00001182,-0.00000871,-0.00000214,-0.00001828,0.0000079
 5,-0.00000135,0.00000491,-0.00000384,0.00000997,-0.00001644,0.00000762
 ,0.00000276,-0.00001096,0.00001922,-0.00000386,0.00000159,0.00001735,-
 0.00000072,0.00001919,-0.00001460,0.00000058,0.00001818,-0.00000292,-0
 .00000188,0.00001126,-0.00000319,0.00000162,-0.00000440,-0.00003034,0.
 00000140,-0.00000409,-0.00000716,0.00000039,0.00001516,0.00000100,0.00
 000048,-0.00001089,0.00000409,0.00000267,0.00000596,-0.00000274,0.0000
 0110,-0.00000219,-0.00001506,0.00000133,-0.00001093,-0.00000512,0.0000
 1287,-0.00000345,0.00000173,-0.00000729,-0.00000830,0.00000574,-0.0000
 0038,0.00000416,0.00000819,0.00000035,-0.00000123,-0.00000677,0.000001
 40,-0.00000267,0.00000460,-0.00000026,-0.00000411,-0.00000468,-0.00000
 109,-0.00000554,0.00000101,-0.00000053,0.00000155,0.00000052,-0.000002
 21,-0.00000074,-0.00000110,0.00000224,0.00000010,0.00000005,-0.0000014
 6,-0.00000138,0.00000094,-0.00000267,0.00000029,0.00000359,-0.00000040
 ,-0.00000020,-0.00000034,0.00000119,0.00000330,0.00000301,0.00000069,-
 0.00000006,0.00000105,-0.00000512,0.00000058,-0.00000179,-0.00000008,0
 .00000317,0.00000308,-0.00000315,0.00000131,-0.00000177,0.00000129,0.0
 0000047,-0.00000211,0.00000139,-0.00000030,-0.00000179,0.00000158,0.00
 000033,0.00000074,-0.00000198,-0.00000283,0.00000102,0.00000108,-0.000
 00219,0.00000502,-0.00000096,0.00000012,0.00000149,0.00000042\\\@
 The archive entry for this job was punched.


 LAW OF COMPENSATION:
      NO CALCULATION IS EVER A COMPLETE FAILURE; IT 
      CAN ALWAYS SERVE AS A BAD EXAMPLE.

                                           -- ANON
 Job cpu time:       0 days 18 hours 19 minutes 14.8 seconds.
 Elapsed time:       0 days  0 hours 43 minutes  3.1 seconds.
 File lengths (MBytes):  RWF=   1472 Int=      0 D2E=      0 Chk=     34 Scr=      1
 Normal termination of Gaussian 16 at Tue Dec  5 12:47:43 2023.
