 Entering Gaussian System, Link 0=g16
 Input=/home/exlonk/in_progress/3364.inp
 Output=/home/exlonk/in_progress/3364.log
 Initial command:
 /opt/gaussian/g16-c01/g16/l1.exe "/lustre/tmp/slurm/2191072/Gau-1336355.inp" -scrdir="/lustre/tmp/slurm/2191072/"
 Default CPUs for threads: 0-4,7-9,13-15,19-20,24-28,31-33,37-39,43-44
 Default is to use a total of  26 processors:
                               26 via shared-memory
                                1 via Linda
 Entering Link 1 = /opt/gaussian/g16-c01/g16/l1.exe PID=   1336356.
  
 Copyright (c) 1988-2019, Gaussian, Inc.  All Rights Reserved.
  
 This is part of the Gaussian(R) 16 program.  It is based on
 the Gaussian(R) 09 system (copyright 2009, Gaussian, Inc.),
 the Gaussian(R) 03 system (copyright 2003, Gaussian, Inc.),
 the Gaussian(R) 98 system (copyright 1998, Gaussian, Inc.),
 the Gaussian(R) 94 system (copyright 1995, Gaussian, Inc.),
 the Gaussian 92(TM) system (copyright 1992, Gaussian, Inc.),
 the Gaussian 90(TM) system (copyright 1990, Gaussian, Inc.),
 the Gaussian 88(TM) system (copyright 1988, Gaussian, Inc.),
 the Gaussian 86(TM) system (copyright 1986, Carnegie Mellon
 University), and the Gaussian 82(TM) system (copyright 1983,
 Carnegie Mellon University). Gaussian is a federally registered
 trademark of Gaussian, Inc.
  
 This software contains proprietary and confidential information,
 including trade secrets, belonging to Gaussian, Inc.
  
 This software is provided under written license and may be
 used, copied, transmitted, or stored only in accord with that
 written license.
  
 The following legend is applicable only to US Government
 contracts under FAR:
  
                    RESTRICTED RIGHTS LEGEND
  
 Use, reproduction and disclosure by the US Government is
 subject to restrictions as set forth in subparagraphs (a)
 and (c) of the Commercial Computer Software - Restricted
 Rights clause in FAR 52.227-19.
  
 Gaussian, Inc.
 340 Quinnipiac St., Bldg. 40, Wallingford CT 06492
  
  
 ---------------------------------------------------------------
 Warning -- This program may not be used in any manner that
 competes with the business of Gaussian, Inc. or will provide
 assistance to any competitor of Gaussian, Inc.  The licensee
 of this program is prohibited from giving any competitor of
 Gaussian, Inc. access to this program.  By using this program,
 the user acknowledges that Gaussian, Inc. is engaged in the
 business of creating and licensing software in the field of
 computational chemistry and represents and warrants to the
 licensee that it is not a competitor of Gaussian, Inc. and that
 it will not use this program in any manner prohibited above.
 ---------------------------------------------------------------
  

 Cite this work as:
 Gaussian 16, Revision C.01,
 M. J. Frisch, G. W. Trucks, H. B. Schlegel, G. E. Scuseria, 
 M. A. Robb, J. R. Cheeseman, G. Scalmani, V. Barone, 
 G. A. Petersson, H. Nakatsuji, X. Li, M. Caricato, A. V. Marenich, 
 J. Bloino, B. G. Janesko, R. Gomperts, B. Mennucci, H. P. Hratchian, 
 J. V. Ortiz, A. F. Izmaylov, J. L. Sonnenberg, D. Williams-Young, 
 F. Ding, F. Lipparini, F. Egidi, J. Goings, B. Peng, A. Petrone, 
 T. Henderson, D. Ranasinghe, V. G. Zakrzewski, J. Gao, N. Rega, 
 G. Zheng, W. Liang, M. Hada, M. Ehara, K. Toyota, R. Fukuda, 
 J. Hasegawa, M. Ishida, T. Nakajima, Y. Honda, O. Kitao, H. Nakai, 
 T. Vreven, K. Throssell, J. A. Montgomery, Jr., J. E. Peralta, 
 F. Ogliaro, M. J. Bearpark, J. J. Heyd, E. N. Brothers, K. N. Kudin, 
 V. N. Staroverov, T. A. Keith, R. Kobayashi, J. Normand, 
 K. Raghavachari, A. P. Rendell, J. C. Burant, S. S. Iyengar, 
 J. Tomasi, M. Cossi, J. M. Millam, M. Klene, C. Adamo, R. Cammi, 
 J. W. Ochterski, R. L. Martin, K. Morokuma, O. Farkas, 
 J. B. Foresman, and D. J. Fox, Gaussian, Inc., Wallingford CT, 2019.
 
 ******************************************
 Gaussian 16:  EM64L-G16RevC.01  3-Jul-2019
                 6-Dec-2023 
 ******************************************
 %nproc=26
 Will use up to   26 processors via shared memory.
 %mem=16GB
 %chk=/home/exlonk/in_progress/3364.chk
 ------------------------------
 #p MN15/6-311++G(d,p) opt freq
 ------------------------------
 1/18=20,19=15,26=3,38=1/1,3;
 2/9=110,12=2,17=6,18=5,40=1/2;
 3/5=4,6=6,7=1111,11=2,25=1,30=1,71=1,74=-73/1,2,3;
 4//1;
 5/5=2,38=5/2;
 6/7=2,8=2,9=2,10=2,28=1/1;
 7//1,2,3,16;
 1/18=20,19=15,26=3/3(2);
 2/9=110/2;
 99//99;
 2/9=110/2;
 3/5=4,6=6,7=1111,11=2,25=1,30=1,71=1,74=-73/1,2,3;
 4/5=5,16=3,69=1/1;
 5/5=2,38=5/2;
 7//1,2,3,16;
 1/18=20,19=15,26=3/3(-5);
 2/9=110/2;
 6/7=2,8=2,9=2,10=2,19=2,28=1/1;
 99/9=1/99;
 Leave Link    1 at Wed Dec  6 22:08:52 2023, MaxMem=  2147483648 cpu:               4.8 elap:               0.3
 (Enter /opt/gaussian/g16-c01/g16/l101.exe)
 ---------------
 name file: 3364
 ---------------
 Symbolic Z-matrix:
 Charge =  0 Multiplicity = 1
 O                     0.7723   -1.1326   -0.0691 
 O                     2.2481   -2.9154   -0.0625 
 O                    -5.4649   -0.3313   -0.2757 
 C                     2.3681    0.56      0.0341 
 C                     0.9625    0.2556   -0.0251 
 C                     3.012    -0.6583    0.0248 
 C                    -0.0558    1.1204   -0.039 
 C                    -1.4389    0.7488   -0.0992 
 C                     3.0919    1.738     0.0929 
 C                     2.0162   -1.7215   -0.0398 
 C                     4.3898   -0.7748    0.0725 
 C                     4.4874    1.6539    0.1422 
 C                     5.132     0.4052    0.132 
 C                    -2.0786    0.5598   -1.3364 
 C                    -2.1859    0.5651    1.0772 
 C                    -4.1514    0.0209   -0.2179 
 C                    -3.4248    0.1986   -1.3954 
 C                    -3.5321    0.204     1.0184 
 C                    -6.148    -0.4965    0.966 
 H                     0.1334    2.1903   -0.0014 
 H                     2.6042    2.7068    0.1015 
 H                     4.8822   -1.7404    0.0646 
 H                     5.0806    2.5632    0.1889 
 H                     6.217     0.3603    0.1709 
 H                    -1.529     0.6943   -2.2658 
 H                    -1.7195    0.704     2.0506 
 H                    -3.902     0.0571   -2.3612 
 H                    -4.0368    0.0825    1.9706 
 H                    -6.1907    0.4416    1.5298 
 H                    -5.7206   -1.3153    1.5546 
 H                    -7.1805   -0.7761    0.7322 
 
 ITRead=  0  0  0  0  0  0  0  0  0  0  0  0  0  0  0  0  0  0  0  0
 ITRead=  0  0  0  0  0  0  0  0  0  0  0
 MicOpt= -1 -1 -1 -1 -1 -1 -1 -1 -1 -1 -1 -1 -1 -1 -1 -1 -1 -1 -1 -1
 MicOpt= -1 -1 -1 -1 -1 -1 -1 -1 -1 -1 -1
 NAtoms=     31 NQM=       31 NQMF=       0 NMMI=      0 NMMIF=      0
                NMic=       0 NMicF=      0.
                    Isotopes and Nuclear Properties:
 (Nuclear quadrupole moments (NQMom) in fm**2, nuclear magnetic moments (NMagM)
  in nuclear magnetons)

  Atom         1           2           3           4           5           6           7           8           9          10
 IAtWgt=          16          16          16          12          12          12          12          12          12          12
 AtmWgt=  15.9949146  15.9949146  15.9949146  12.0000000  12.0000000  12.0000000  12.0000000  12.0000000  12.0000000  12.0000000
 NucSpn=           0           0           0           0           0           0           0           0           0           0
 AtZEff=  -0.0000000  -0.0000000  -0.0000000  -0.0000000  -0.0000000  -0.0000000  -0.0000000  -0.0000000  -0.0000000  -0.0000000
 NQMom=    0.0000000   0.0000000   0.0000000   0.0000000   0.0000000   0.0000000   0.0000000   0.0000000   0.0000000   0.0000000
 NMagM=    0.0000000   0.0000000   0.0000000   0.0000000   0.0000000   0.0000000   0.0000000   0.0000000   0.0000000   0.0000000
 AtZNuc=   8.0000000   8.0000000   8.0000000   6.0000000   6.0000000   6.0000000   6.0000000   6.0000000   6.0000000   6.0000000

  Atom        11          12          13          14          15          16          17          18          19          20
 IAtWgt=          12          12          12          12          12          12          12          12          12           1
 AtmWgt=  12.0000000  12.0000000  12.0000000  12.0000000  12.0000000  12.0000000  12.0000000  12.0000000  12.0000000   1.0078250
 NucSpn=           0           0           0           0           0           0           0           0           0           1
 AtZEff=  -0.0000000  -0.0000000  -0.0000000  -0.0000000  -0.0000000  -0.0000000  -0.0000000  -0.0000000  -0.0000000  -0.0000000
 NQMom=    0.0000000   0.0000000   0.0000000   0.0000000   0.0000000   0.0000000   0.0000000   0.0000000   0.0000000   0.0000000
 NMagM=    0.0000000   0.0000000   0.0000000   0.0000000   0.0000000   0.0000000   0.0000000   0.0000000   0.0000000   2.7928460
 AtZNuc=   6.0000000   6.0000000   6.0000000   6.0000000   6.0000000   6.0000000   6.0000000   6.0000000   6.0000000   1.0000000

  Atom        21          22          23          24          25          26          27          28          29          30
 IAtWgt=           1           1           1           1           1           1           1           1           1           1
 AtmWgt=   1.0078250   1.0078250   1.0078250   1.0078250   1.0078250   1.0078250   1.0078250   1.0078250   1.0078250   1.0078250
 NucSpn=           1           1           1           1           1           1           1           1           1           1
 AtZEff=  -0.0000000  -0.0000000  -0.0000000  -0.0000000  -0.0000000  -0.0000000  -0.0000000  -0.0000000  -0.0000000  -0.0000000
 NQMom=    0.0000000   0.0000000   0.0000000   0.0000000   0.0000000   0.0000000   0.0000000   0.0000000   0.0000000   0.0000000
 NMagM=    2.7928460   2.7928460   2.7928460   2.7928460   2.7928460   2.7928460   2.7928460   2.7928460   2.7928460   2.7928460
 AtZNuc=   1.0000000   1.0000000   1.0000000   1.0000000   1.0000000   1.0000000   1.0000000   1.0000000   1.0000000   1.0000000

  Atom        31
 IAtWgt=           1
 AtmWgt=   1.0078250
 NucSpn=           1
 AtZEff=  -0.0000000
 NQMom=    0.0000000
 NMagM=    2.7928460
 AtZNuc=   1.0000000
 Leave Link  101 at Wed Dec  6 22:08:52 2023, MaxMem=  2147483648 cpu:               9.2 elap:               0.4
 (Enter /opt/gaussian/g16-c01/g16/l103.exe)

 GradGradGradGradGradGradGradGradGradGradGradGradGradGradGradGradGradGrad
 Berny optimization.
 Initialization pass.
                           ----------------------------
                           !    Initial Parameters    !
                           ! (Angstroms and Degrees)  !
 --------------------------                            --------------------------
 ! Name  Definition              Value          Derivative Info.                !
 --------------------------------------------------------------------------------
 ! R1    R(1,5)                  1.4019         estimate D2E/DX2                !
 ! R2    R(1,10)                 1.3766         estimate D2E/DX2                !
 ! R3    R(2,10)                 1.2164         estimate D2E/DX2                !
 ! R4    R(3,16)                 1.3611         estimate D2E/DX2                !
 ! R5    R(3,19)                 1.4268         estimate D2E/DX2                !
 ! R6    R(4,5)                  1.4394         estimate D2E/DX2                !
 ! R7    R(4,6)                  1.378          estimate D2E/DX2                !
 ! R8    R(4,9)                  1.3838         estimate D2E/DX2                !
 ! R9    R(5,7)                  1.336          estimate D2E/DX2                !
 ! R10   R(6,10)                 1.4581         estimate D2E/DX2                !
 ! R11   R(6,11)                 1.3835         estimate D2E/DX2                !
 ! R12   R(7,8)                  1.4334         estimate D2E/DX2                !
 ! R13   R(7,20)                 1.0872         estimate D2E/DX2                !
 ! R14   R(8,14)                 1.4056         estimate D2E/DX2                !
 ! R15   R(8,15)                 1.4056         estimate D2E/DX2                !
 ! R16   R(9,12)                 1.3989         estimate D2E/DX2                !
 ! R17   R(9,21)                 1.0847         estimate D2E/DX2                !
 ! R18   R(11,13)                1.3953         estimate D2E/DX2                !
 ! R19   R(11,22)                1.0839         estimate D2E/DX2                !
 ! R20   R(12,13)                1.4053         estimate D2E/DX2                !
 ! R21   R(12,23)                1.0867         estimate D2E/DX2                !
 ! R22   R(13,24)                1.0866         estimate D2E/DX2                !
 ! R23   R(14,17)                1.3951         estimate D2E/DX2                !
 ! R24   R(14,25)                1.0881         estimate D2E/DX2                !
 ! R25   R(15,18)                1.395          estimate D2E/DX2                !
 ! R26   R(15,26)                1.0883         estimate D2E/DX2                !
 ! R27   R(16,17)                1.395          estimate D2E/DX2                !
 ! R28   R(16,18)                1.3948         estimate D2E/DX2                !
 ! R29   R(17,27)                1.0865         estimate D2E/DX2                !
 ! R30   R(18,28)                1.0845         estimate D2E/DX2                !
 ! R31   R(19,29)                1.0953         estimate D2E/DX2                !
 ! R32   R(19,30)                1.0952         estimate D2E/DX2                !
 ! R33   R(19,31)                1.0949         estimate D2E/DX2                !
 ! A1    A(5,1,10)             107.4795         estimate D2E/DX2                !
 ! A2    A(16,3,19)            117.0661         estimate D2E/DX2                !
 ! A3    A(5,4,6)              105.6076         estimate D2E/DX2                !
 ! A4    A(5,4,9)              133.83           estimate D2E/DX2                !
 ! A5    A(6,4,9)              120.5624         estimate D2E/DX2                !
 ! A6    A(1,5,4)              110.0718         estimate D2E/DX2                !
 ! A7    A(1,5,7)              122.4961         estimate D2E/DX2                !
 ! A8    A(4,5,7)              127.4321         estimate D2E/DX2                !
 ! A9    A(4,6,10)             109.0157         estimate D2E/DX2                !
 ! A10   A(4,6,11)             122.6521         estimate D2E/DX2                !
 ! A11   A(10,6,11)            128.3322         estimate D2E/DX2                !
 ! A12   A(5,7,8)              124.6149         estimate D2E/DX2                !
 ! A13   A(5,7,20)             120.2657         estimate D2E/DX2                !
 ! A14   A(8,7,20)             115.1193         estimate D2E/DX2                !
 ! A15   A(7,8,14)             120.7286         estimate D2E/DX2                !
 ! A16   A(7,8,15)             120.7656         estimate D2E/DX2                !
 ! A17   A(14,8,15)            118.5058         estimate D2E/DX2                !
 ! A18   A(4,9,12)             118.1697         estimate D2E/DX2                !
 ! A19   A(4,9,21)             121.7008         estimate D2E/DX2                !
 ! A20   A(12,9,21)            120.1295         estimate D2E/DX2                !
 ! A21   A(1,10,2)             126.2813         estimate D2E/DX2                !
 ! A22   A(1,10,6)             107.8254         estimate D2E/DX2                !
 ! A23   A(2,10,6)             125.8933         estimate D2E/DX2                !
 ! A24   A(6,11,13)            117.3863         estimate D2E/DX2                !
 ! A25   A(6,11,22)            121.813          estimate D2E/DX2                !
 ! A26   A(13,11,22)           120.8006         estimate D2E/DX2                !
 ! A27   A(9,12,13)            120.7132         estimate D2E/DX2                !
 ! A28   A(9,12,23)            119.7199         estimate D2E/DX2                !
 ! A29   A(13,12,23)           119.5669         estimate D2E/DX2                !
 ! A30   A(11,13,12)           120.5162         estimate D2E/DX2                !
 ! A31   A(11,13,24)           119.8495         estimate D2E/DX2                !
 ! A32   A(12,13,24)           119.6343         estimate D2E/DX2                !
 ! A33   A(8,14,17)            120.7452         estimate D2E/DX2                !
 ! A34   A(8,14,25)            120.3539         estimate D2E/DX2                !
 ! A35   A(17,14,25)           118.9008         estimate D2E/DX2                !
 ! A36   A(8,15,18)            120.7572         estimate D2E/DX2                !
 ! A37   A(8,15,26)            120.2756         estimate D2E/DX2                !
 ! A38   A(18,15,26)           118.9671         estimate D2E/DX2                !
 ! A39   A(3,16,17)            119.9835         estimate D2E/DX2                !
 ! A40   A(3,16,18)            120.0049         estimate D2E/DX2                !
 ! A41   A(17,16,18)           120.0116         estimate D2E/DX2                !
 ! A42   A(14,17,16)           119.9933         estimate D2E/DX2                !
 ! A43   A(14,17,27)           119.6784         estimate D2E/DX2                !
 ! A44   A(16,17,27)           120.3282         estimate D2E/DX2                !
 ! A45   A(15,18,16)           119.9869         estimate D2E/DX2                !
 ! A46   A(15,18,28)           116.1724         estimate D2E/DX2                !
 ! A47   A(16,18,28)           123.8408         estimate D2E/DX2                !
 ! A48   A(3,19,29)            111.5591         estimate D2E/DX2                !
 ! A49   A(3,19,30)            111.5571         estimate D2E/DX2                !
 ! A50   A(3,19,31)            107.1697         estimate D2E/DX2                !
 ! A51   A(29,19,30)           112.264          estimate D2E/DX2                !
 ! A52   A(29,19,31)           106.9689         estimate D2E/DX2                !
 ! A53   A(30,19,31)           106.9675         estimate D2E/DX2                !
 ! D1    D(10,1,5,4)            -0.0069         estimate D2E/DX2                !
 ! D2    D(10,1,5,7)           179.9926         estimate D2E/DX2                !
 ! D3    D(5,1,10,2)           179.9521         estimate D2E/DX2                !
 ! D4    D(5,1,10,6)             0.0048         estimate D2E/DX2                !
 ! D5    D(19,3,16,17)         179.998          estimate D2E/DX2                !
 ! D6    D(19,3,16,18)           0.0017         estimate D2E/DX2                !
 ! D7    D(16,3,19,29)          63.2275         estimate D2E/DX2                !
 ! D8    D(16,3,19,30)         -63.2212         estimate D2E/DX2                !
 ! D9    D(16,3,19,31)        -179.9955         estimate D2E/DX2                !
 ! D10   D(6,4,5,1)              0.0062         estimate D2E/DX2                !
 ! D11   D(6,4,5,7)           -179.9933         estimate D2E/DX2                !
 ! D12   D(9,4,5,1)           -179.941          estimate D2E/DX2                !
 ! D13   D(9,4,5,7)              0.0596         estimate D2E/DX2                !
 ! D14   D(5,4,6,10)            -0.0031         estimate D2E/DX2                !
 ! D15   D(5,4,6,11)          -179.9607         estimate D2E/DX2                !
 ! D16   D(9,4,6,10)           179.9526         estimate D2E/DX2                !
 ! D17   D(9,4,6,11)            -0.005          estimate D2E/DX2                !
 ! D18   D(5,4,9,12)           179.9426         estimate D2E/DX2                !
 ! D19   D(5,4,9,21)            -0.0403         estimate D2E/DX2                !
 ! D20   D(6,4,9,12)             0.0017         estimate D2E/DX2                !
 ! D21   D(6,4,9,21)          -179.9811         estimate D2E/DX2                !
 ! D22   D(1,5,7,8)             -0.0005         estimate D2E/DX2                !
 ! D23   D(1,5,7,20)           179.8695         estimate D2E/DX2                !
 ! D24   D(4,5,7,8)            179.9989         estimate D2E/DX2                !
 ! D25   D(4,5,7,20)            -0.131          estimate D2E/DX2                !
 ! D26   D(4,6,10,1)            -0.001          estimate D2E/DX2                !
 ! D27   D(4,6,10,2)          -179.9486         estimate D2E/DX2                !
 ! D28   D(11,6,10,1)          179.9535         estimate D2E/DX2                !
 ! D29   D(11,6,10,2)            0.006          estimate D2E/DX2                !
 ! D30   D(4,6,11,13)            0.0033         estimate D2E/DX2                !
 ! D31   D(4,6,11,22)          179.9917         estimate D2E/DX2                !
 ! D32   D(10,6,11,13)        -179.9457         estimate D2E/DX2                !
 ! D33   D(10,6,11,22)           0.0428         estimate D2E/DX2                !
 ! D34   D(5,7,8,14)           -88.278          estimate D2E/DX2                !
 ! D35   D(5,7,8,15)            91.7162         estimate D2E/DX2                !
 ! D36   D(20,7,8,14)           91.846          estimate D2E/DX2                !
 ! D37   D(20,7,8,15)          -88.1598         estimate D2E/DX2                !
 ! D38   D(7,8,14,17)         -179.9773         estimate D2E/DX2                !
 ! D39   D(7,8,14,25)           -0.0201         estimate D2E/DX2                !
 ! D40   D(15,8,14,17)           0.0284         estimate D2E/DX2                !
 ! D41   D(15,8,14,25)         179.9855         estimate D2E/DX2                !
 ! D42   D(7,8,15,18)          179.9728         estimate D2E/DX2                !
 ! D43   D(7,8,15,26)            0.0112         estimate D2E/DX2                !
 ! D44   D(14,8,15,18)          -0.0329         estimate D2E/DX2                !
 ! D45   D(14,8,15,26)        -179.9945         estimate D2E/DX2                !
 ! D46   D(4,9,12,13)            0.003          estimate D2E/DX2                !
 ! D47   D(4,9,12,23)         -179.9978         estimate D2E/DX2                !
 ! D48   D(21,9,12,13)         179.9861         estimate D2E/DX2                !
 ! D49   D(21,9,12,23)          -0.0146         estimate D2E/DX2                !
 ! D50   D(6,11,13,12)           0.0015         estimate D2E/DX2                !
 ! D51   D(6,11,13,24)         179.9962         estimate D2E/DX2                !
 ! D52   D(22,11,13,12)       -179.987          estimate D2E/DX2                !
 ! D53   D(22,11,13,24)          0.0076         estimate D2E/DX2                !
 ! D54   D(9,12,13,11)          -0.0047         estimate D2E/DX2                !
 ! D55   D(9,12,13,24)        -179.9993         estimate D2E/DX2                !
 ! D56   D(23,12,13,11)        179.9961         estimate D2E/DX2                !
 ! D57   D(23,12,13,24)          0.0014         estimate D2E/DX2                !
 ! D58   D(8,14,17,16)          -0.005          estimate D2E/DX2                !
 ! D59   D(8,14,17,27)         179.9939         estimate D2E/DX2                !
 ! D60   D(25,14,17,16)       -179.9628         estimate D2E/DX2                !
 ! D61   D(25,14,17,27)          0.0361         estimate D2E/DX2                !
 ! D62   D(8,15,18,16)           0.014          estimate D2E/DX2                !
 ! D63   D(8,15,18,28)        -179.9748         estimate D2E/DX2                !
 ! D64   D(26,15,18,16)        179.9761         estimate D2E/DX2                !
 ! D65   D(26,15,18,28)         -0.0127         estimate D2E/DX2                !
 ! D66   D(3,16,17,14)         179.9892         estimate D2E/DX2                !
 ! D67   D(3,16,17,27)          -0.0096         estimate D2E/DX2                !
 ! D68   D(18,16,17,14)         -0.0145         estimate D2E/DX2                !
 ! D69   D(18,16,17,27)        179.9866         estimate D2E/DX2                !
 ! D70   D(3,16,18,15)        -179.9937         estimate D2E/DX2                !
 ! D71   D(3,16,18,28)          -0.0058         estimate D2E/DX2                !
 ! D72   D(17,16,18,15)          0.0101         estimate D2E/DX2                !
 ! D73   D(17,16,18,28)        179.9979         estimate D2E/DX2                !
 --------------------------------------------------------------------------------
 Trust Radius=3.00D-01 FncErr=1.00D-07 GrdErr=1.00D-06 EigMax=2.50D+02 EigMin=1.00D-04
 Number of steps in this run=    169 maximum allowed number of steps=    186.
 GradGradGradGradGradGradGradGradGradGradGradGradGradGradGradGradGradGrad

 Leave Link  103 at Wed Dec  6 22:08:52 2023, MaxMem=  2147483648 cpu:               2.7 elap:               0.2
 (Enter /opt/gaussian/g16-c01/g16/l202.exe)
                          Input orientation:                          
 ---------------------------------------------------------------------
 Center     Atomic      Atomic             Coordinates (Angstroms)
 Number     Number       Type             X           Y           Z
 ---------------------------------------------------------------------
      1          8           0        0.772300   -1.132600   -0.069100
      2          8           0        2.248100   -2.915400   -0.062500
      3          8           0       -5.464900   -0.331300   -0.275700
      4          6           0        2.368100    0.560000    0.034100
      5          6           0        0.962500    0.255600   -0.025100
      6          6           0        3.012000   -0.658300    0.024800
      7          6           0       -0.055800    1.120400   -0.039000
      8          6           0       -1.438900    0.748800   -0.099200
      9          6           0        3.091900    1.738000    0.092900
     10          6           0        2.016200   -1.721500   -0.039800
     11          6           0        4.389800   -0.774800    0.072500
     12          6           0        4.487400    1.653900    0.142200
     13          6           0        5.132000    0.405200    0.132000
     14          6           0       -2.078600    0.559800   -1.336400
     15          6           0       -2.185900    0.565100    1.077200
     16          6           0       -4.151400    0.020900   -0.217900
     17          6           0       -3.424800    0.198600   -1.395400
     18          6           0       -3.532100    0.204000    1.018400
     19          6           0       -6.148000   -0.496500    0.966000
     20          1           0        0.133400    2.190300   -0.001400
     21          1           0        2.604200    2.706800    0.101500
     22          1           0        4.882200   -1.740400    0.064600
     23          1           0        5.080600    2.563200    0.188900
     24          1           0        6.217000    0.360300    0.170900
     25          1           0       -1.529000    0.694300   -2.265800
     26          1           0       -1.719500    0.704000    2.050600
     27          1           0       -3.902000    0.057100   -2.361200
     28          1           0       -4.036800    0.082500    1.970600
     29          1           0       -6.190700    0.441600    1.529800
     30          1           0       -5.720600   -1.315300    1.554600
     31          1           0       -7.180500   -0.776100    0.732200
 ---------------------------------------------------------------------
                    Distance matrix (angstroms):
                    1          2          3          4          5
     1  O    0.000000
     2  O    2.314391   0.000000
     3  O    6.291854   8.137161   0.000000
     4  C    2.328545   3.478813   7.889631   0.000000
     5  C    1.401860   3.421901   6.459003   1.439401   0.000000
     6  C    2.291295   2.384463   8.488525   1.378023   2.244583
     7  C    2.400555   4.647170   5.605517   2.488912   1.336042
     8  C    2.903442   5.198238   4.172103   3.814009   2.452643
     9  C    3.694203   4.731837   8.811169   1.383845   2.597264
    10  C    1.376571   1.216425   7.612829   2.309662   2.240407
    11  C    3.637908   3.031051   9.870818   2.422898   3.580173
    12  C    4.648785   5.092629  10.156965   2.387412   3.795807
    13  C    4.627338   4.402396  10.630284   2.769962   4.175140
    14  C    3.549352   5.693871   3.658712   4.653108   3.325708
    15  C    3.598213   5.750926   3.658649   4.671937   3.350116
    16  C    5.059202   7.042699   1.361127   6.546603   5.122912
    17  C    4.598566   6.607224   2.386740   5.977606   4.596670
    18  C    4.636487   6.656554   2.386830   5.992324   4.614432
    19  C    7.026137   8.797919   1.426792   8.631836   7.218528
    20  H    3.384441   5.526650   6.146110   2.766410   2.105002
    21  H    4.257459   5.635853   8.630336   2.160795   2.952895
    22  H    4.156750   2.887085  10.448150   3.407854   4.399558
    23  H    5.682161   6.172626  10.945390   3.375564   4.725417
    24  H    5.650762   5.151393  11.710873   3.856504   5.259197
    25  H    3.668656   5.670181   4.528097   4.527137   3.379462
    26  H    3.751706   5.771230   4.528967   4.560206   3.420923
    27  H    5.340242   7.207184   2.634923   6.730864   5.400012
    28  H    5.363235   7.254024   2.693801   6.708262   5.385702
    29  H    7.315597   9.220532   2.093798   8.689315   7.322607
    30  H    6.695337   8.287069   2.093714   8.441311   7.044644
    31  H    8.001013   9.700858   2.038870   9.666864   8.242958
                    6          7          8          9         10
     6  C    0.000000
     7  C    3.546723   0.000000
     8  C    4.669670   1.433414   0.000000
     9  C    2.398599   3.210427   4.641505   0.000000
    10  C    1.458144   3.517041   4.247779   3.625311   0.000000
    11  C    1.383539   4.834002   6.026988   2.828272   2.557895
    12  C    2.745334   4.578004   5.999876   1.398901   4.187276
    13  C    2.374221   5.239658   6.583938   2.437190   3.776318
    14  C    5.408405   2.467638   1.405561   5.492279   4.863424
    15  C    5.442648   2.468114   1.405586   5.495427   4.912624
    16  C    7.199619   4.244390   2.810976   7.450532   6.411472
    17  C    6.647078   3.746958   2.434472   6.859458   5.926965
    18  C    6.675032   3.747338   2.434609   6.862003   5.967493
    19  C    9.209649   6.382734   4.986085   9.546258   8.316635
    20  H    4.049882   1.087151   2.135325   2.994360   4.341496
    21  H    3.390587   3.100323   4.496743   1.084665   4.469402
    22  H    2.161058   5.707780   6.795532   3.912191   2.867963
    23  H    3.831983   5.340058   6.773399   2.155249   5.272713
    24  H    3.366143   6.322170   7.670508   3.416195   4.693081
    25  H    5.262799   2.703797   2.169157   5.292022   4.833178
    26  H    5.324173   2.703279   2.168498   5.296349   4.920191
    27  H    7.349026   4.616977   3.414960   7.600176   6.601319
    28  H    7.349864   4.578656   3.387789   7.555448   6.628343
    29  H    9.389595   6.368587   5.032655   9.482194   8.631098
    30  H    8.889895   6.368842   5.032745   9.440305   7.909816
    31  H   10.217698   7.413016   5.998543  10.594886   9.277341
                   11         12         13         14         15
    11  C    0.000000
    12  C    2.431659   0.000000
    13  C    1.395278   1.405299   0.000000
    14  C    6.753248   6.818773   7.360221   0.000000
    15  C    6.785616   6.825880   7.380422   2.415990   0.000000
    16  C    8.583098   8.799161   9.297937   2.416186   2.415911
    17  C    8.010631   8.190545   8.694507   1.395063   2.789793
    18  C    8.037990   8.196482   8.711648   2.790043   1.395029
    19  C   10.579273  10.881847  11.346674   4.793415   4.103364
    20  H    5.187892   4.389267   5.309461   3.055110   3.030479
    21  H    3.912895   2.157938   3.418781   5.348437   5.337034
    22  H    1.083930   3.418064   2.161144   7.463676   7.503248
    23  H    3.410718   1.086689   2.159362   7.589091   7.588379
    24  H    2.153322   2.160033   1.086625   8.433785   8.454114
    25  H    6.531316   6.551058   7.085333   1.088088   3.409378
    26  H    6.589634   6.562767   7.121331   3.409034   1.088269
    27  H    8.681526   8.899372   9.378186   2.151211   3.876294
    28  H    8.680169   8.858574   9.356895   3.872804   2.111136
    29  H   10.749434  10.835909  11.408712   5.013825   4.032186
    30  H   10.232739  10.724471  11.079839   5.013785   4.032111
    31  H   11.589092  11.932849  12.383593   5.665079   5.183037
                   16         17         18         19         20
    16  C    0.000000
    17  C    1.395002   0.000000
    18  C    1.394810   2.416190   0.000000
    19  C    2.378179   3.670857   2.708575   0.000000
    20  H    4.807565   4.309396   4.292001   6.900054   0.000000
    21  H    7.276964   6.699300   6.690209   9.359994   2.526304
    22  H    9.208035   8.654338   8.688548  11.136657   6.164889
    23  H    9.584289   8.969012   8.968417  11.663923   4.964882
    24  H   10.381237   9.769532   9.787116  12.420125   6.355216
    25  H    3.394752   2.144148   3.877986   5.761744   3.182624
    26  H    3.395122   3.877937   2.144984   4.714782   3.138954
    27  H    2.158065   1.086514   3.402955   4.052314   5.138448
    28  H    2.192364   3.423153   1.084513   2.408657   5.071703
    29  H    2.718490   4.033119   2.717745   1.095320   6.737712
    30  H    2.718377   4.033000   2.717594   1.095242   6.998549
    31  H    3.273125   4.425156   3.788579   1.094941   7.926590
                   21         22         23         24         25
    21  H    0.000000
    22  H    4.996822   0.000000
    23  H    2.482099   4.309964   0.000000
    24  H    4.308504   2.491171   2.478810   0.000000
    25  H    5.170842   7.243067   7.294186   8.127089   0.000000
    26  H    5.148260   7.314488   7.291359   8.163298   4.320613
    27  H    7.444222   9.288578   9.668022  10.435402   2.458913
    28  H    7.381285   9.300772   9.615368  10.414245   4.960892
    29  H    9.193554  11.380556  11.547355  12.482157   6.016800
    30  H    9.359011  10.715418  11.557414  12.133777   6.016931
    31  H   10.405226  12.119583  12.719303  13.457320   6.564262
                   26         27         28         29         30
    26  H    0.000000
    27  H    4.964450   0.000000
    28  H    2.400529   4.333971   0.000000
    29  H    4.509070   4.530548   2.227677   0.000000
    30  H    4.509145   4.530373   2.227573   1.818875   0.000000
    31  H    5.809595   4.583875   3.486213   1.760302   1.760223
                   31
    31  H    0.000000
 Stoichiometry    C16H12O3
 Framework group  C1[X(C16H12O3)]
 Deg. of freedom    87
 Full point group                 C1      NOp   1
 Largest Abelian subgroup         C1      NOp   1
 Largest concise Abelian subgroup C1      NOp   1
                         Standard orientation:                         
 ---------------------------------------------------------------------
 Center     Atomic      Atomic             Coordinates (Angstroms)
 Number     Number       Type             X           Y           Z
 ---------------------------------------------------------------------
      1          8           0        0.888684    1.117250    0.086145
      2          8           0        2.352055    2.910215    0.070985
      3          8           0       -5.340317    0.272083    0.355730
      4          6           0        2.494879   -0.563869   -0.040724
      5          6           0        1.087931   -0.269420    0.034601
      6          6           0        3.130462    0.658804   -0.033406
      7          6           0        0.075799   -1.141281    0.055862
      8          6           0       -1.309101   -0.779482    0.132215
      9          6           0        3.226083   -1.736602   -0.111893
     10          6           0        2.128129    1.714839    0.045992
     11          6           0        4.506844    0.785004   -0.095260
     12          6           0        4.620369   -1.642673   -0.175664
     13          6           0        5.256453   -0.389599   -0.167332
     14          6           0       -1.936885   -0.599744    1.376877
     15          6           0       -2.069819   -0.596349   -1.035450
     16          6           0       -4.025119   -0.070807    0.282592
     17          6           0       -3.284829   -0.248086    1.451598
     18          6           0       -3.417765   -0.244790   -0.960930
     19          6           0       -6.037707    0.437413   -0.877983
     20          1           0        0.271929   -2.209694    0.011995
     21          1           0        2.744982   -2.708707   -0.119176
     22          1           0        4.992659    1.753944   -0.088740
     23          1           0        5.219268   -2.547664   -0.232278
     24          1           0        6.340644   -0.337053   -0.217565
     25          1           0       -1.376517   -0.734077    2.299849
     26          1           0       -1.612859   -0.728217   -2.014290
     27          1           0       -3.752687   -0.113662    2.422964
     28          1           0       -3.933389   -0.123057   -1.907229
     29          1           0       -6.079961   -0.498748   -1.445030
     30          1           0       -5.622225    1.261441   -1.467820
     31          1           0       -7.069556    0.708958   -0.632128
 ---------------------------------------------------------------------
 Rotational constants (GHZ):           1.1243031           0.1600894           0.1491834
 Leave Link  202 at Wed Dec  6 22:08:52 2023, MaxMem=  2147483648 cpu:               1.9 elap:               0.2
 (Enter /opt/gaussian/g16-c01/g16/l301.exe)
 Standard basis: 6-311++G(d,p) (5D, 7F)
 Ernie: Thresh=  0.10000D-02 Tol=  0.10000D-05 Strict=F.
 There are   521 symmetry adapted cartesian basis functions of A   symmetry.
 There are   502 symmetry adapted basis functions of A   symmetry.
   502 basis functions,   792 primitive gaussians,   521 cartesian basis functions
    66 alpha electrons       66 beta electrons
       nuclear repulsion energy      1273.0649628880 Hartrees.
 IExCor= 7252 DFT=T Ex+Corr=MN15 ExCW=0 ScaHFX=  0.440000
 ScaDFX=  1.000000  1.000000  1.000000  1.000000 ScalE2=  1.000000  1.000000
 IRadAn=      5 IRanWt=     -1 IRanGd=            0 ICorTp=0 IEmpDi=  4
 NAtoms=   31 NActive=   31 NUniq=   31 SFac= 1.00D+00 NAtFMM=   60 NAOKFM=F Big=F
 Integral buffers will be    131072 words long.
 Raffenetti 2 integral format.
 Two-electron integral symmetry is turned on.
 Leave Link  301 at Wed Dec  6 22:08:53 2023, MaxMem=  2147483648 cpu:               2.6 elap:               0.2
 (Enter /opt/gaussian/g16-c01/g16/l302.exe)
 NPDir=0 NMtPBC=     1 NCelOv=     1 NCel=       1 NClECP=     1 NCelD=      1
         NCelK=      1 NCelE2=     1 NClLst=     1 CellRange=     0.0.
 One-electron integrals computed using PRISM.
 One-electron integral symmetry used in STVInt
 NBasis=   502 RedAO= T EigKep=  1.78D-06  NBF=   502
 NBsUse=   497 1.00D-06 EigRej=  8.83D-07 NBFU=   497
 Precomputing XC quadrature grid using
 IXCGrd= 4 IRadAn=           5 IRanWt=          -1 IRanGd=           0 AccXCQ= 0.00D+00.
 Generated NRdTot=       0 NPtTot=           0 NUsed=           0 NTot=          32
 NSgBfM=   514   514   514   514   514 MxSgAt=    31 MxSgA2=    31.
 Leave Link  302 at Wed Dec  6 22:08:53 2023, MaxMem=  2147483648 cpu:              13.8 elap:               0.6
 (Enter /opt/gaussian/g16-c01/g16/l303.exe)
 DipDrv:  MaxL=1.
 Leave Link  303 at Wed Dec  6 22:08:53 2023, MaxMem=  2147483648 cpu:               5.3 elap:               0.3
 (Enter /opt/gaussian/g16-c01/g16/l401.exe)
 ExpMin= 3.60D-02 ExpMax= 8.59D+03 ExpMxC= 1.30D+03 IAcc=3 IRadAn=         5 AccDes= 0.00D+00
 Harris functional with IExCor= 1009 and IRadAn=       5 diagonalized for initial guess.
 HarFok:  IExCor= 1009 AccDes= 0.00D+00 IRadAn=         5 IDoV= 1 UseB2=F ITyADJ=14
 ICtDFT=  3500011 ScaDFX=  1.000000  1.000000  1.000000  1.000000
 FoFCou: FMM=F IPFlag=           0 FMFlag=      100000 FMFlg1=           0
         NFxFlg=           0 DoJE=T BraDBF=F KetDBF=T FulRan=T
         wScrn=  0.000000 ICntrl=       500 IOpCl=  0 I1Cent=   200000004 NGrid=           0
         NMat0=    1 NMatS0=      1 NMatT0=    0 NMatD0=    1 NMtDS0=    0 NMtDT0=    0
 Petite list used in FoFCou.
 Harris En= -842.054200746737    
 JPrj=0 DoOrth=F DoCkMO=F.
 Leave Link  401 at Wed Dec  6 22:09:05 2023, MaxMem=  2147483648 cpu:             289.9 elap:              11.6
 (Enter /opt/gaussian/g16-c01/g16/l502.exe)
 Integral symmetry usage will be decided dynamically.
 Closed shell SCF:
 Using DIIS extrapolation, IDIIS=  1040.
 NGot=  2147483648 LenX=  2146921578 LenY=  2146649616
 Requested convergence on RMS density matrix=1.00D-08 within 128 cycles.
 Requested convergence on MAX density matrix=1.00D-06.
 Requested convergence on             energy=1.00D-06.
 No special actions if energy rises.
 Fock matrices will be formed incrementally for  20 cycles.

 Cycle   1  Pass 1  IDiag  1:
 FoFJK:  IHMeth= 1 ICntrl=       0 DoSepK=F KAlg= 0 I1Cent=           0 FoldK=F
 IRaf= 810000000 NMat=       1 IRICut=       1 DoRegI=T DoRafI=F ISym2E= 0 IDoP0=0 IntGTp=1.
 FoFCou: FMM=F IPFlag=           0 FMFlag=      100000 FMFlg1=           0
         NFxFlg=           0 DoJE=F BraDBF=F KetDBF=F FulRan=T
         wScrn=  0.000000 ICntrl=         0 IOpCl=  0 I1Cent=           0 NGrid=           0
         NMat0=    1 NMatS0=      1 NMatT0=    0 NMatD0=    1 NMtDS0=    0 NMtDT0=    0
 Symmetry not used in FoFCou.
 E= -841.431429088377    
 DIIS: error= 2.98D-02 at cycle   1 NSaved=   1.
 NSaved= 1 IEnMin= 1 EnMin= -841.431429088377     IErMin= 1 ErrMin= 2.98D-02
 ErrMax= 2.98D-02  0.00D+00 EMaxC= 1.00D-01 BMatC= 4.73D-01 BMatP= 4.73D-01
 IDIUse=3 WtCom= 7.02D-01 WtEn= 2.98D-01
 Coeff-Com:  0.100D+01
 Coeff-En:   0.100D+01
 Coeff:      0.100D+01
 Gap=     0.187 Goal=   None    Shift=    0.000
 GapD=    0.187 DampG=1.000 DampE=0.500 DampFc=0.5000 IDamp=-1.
 Damping current iteration by 5.00D-01
 RMSDP=3.20D-02 MaxDP=3.01D+00              OVMax= 1.82D-01

 Cycle   2  Pass 1  IDiag  1:
 RMSU=  9.26D-03    CP:  8.12D-01
 E= -841.595129990223     Delta-E=       -0.163700901846 Rises=F Damp=T
 DIIS: error= 1.53D-02 at cycle   2 NSaved=   2.
 NSaved= 2 IEnMin= 2 EnMin= -841.595129990223     IErMin= 2 ErrMin= 1.53D-02
 ErrMax= 1.53D-02  0.00D+00 EMaxC= 1.00D-01 BMatC= 6.24D-02 BMatP= 4.73D-01
 IDIUse=3 WtCom= 8.47D-01 WtEn= 1.53D-01
 Coeff-Com:  0.231D-01 0.977D+00
 Coeff-En:   0.712D-01 0.929D+00
 Coeff:      0.304D-01 0.970D+00
 Gap=     0.213 Goal=   None    Shift=    0.000
 RMSDP=1.79D-02 MaxDP=2.17D+00 DE=-1.64D-01 OVMax= 1.30D-01

 Cycle   3  Pass 1  IDiag  1:
 RMSU=  7.08D-03    CP:  5.77D-01  1.20D+00
 E= -841.756966204337     Delta-E=       -0.161836214114 Rises=F Damp=F
 DIIS: error= 1.47D-02 at cycle   3 NSaved=   3.
 NSaved= 3 IEnMin= 3 EnMin= -841.756966204337     IErMin= 3 ErrMin= 1.47D-02
 ErrMax= 1.47D-02  0.00D+00 EMaxC= 1.00D-01 BMatC= 6.56D-02 BMatP= 6.24D-02
 IDIUse=3 WtCom= 8.53D-01 WtEn= 1.47D-01
 Coeff-Com: -0.984D-01 0.560D+00 0.538D+00
 Coeff-En:   0.000D+00 0.000D+00 0.100D+01
 Coeff:     -0.839D-01 0.478D+00 0.606D+00
 Gap=     0.208 Goal=   None    Shift=    0.000
 RMSDP=2.99D-03 MaxDP=1.88D-01 DE=-1.62D-01 OVMax= 7.34D-02

 Cycle   4  Pass 1  IDiag  1:
 RMSU=  2.41D-03    CP:  5.69D-01  1.24D+00  7.65D-01
 E= -841.794069014636     Delta-E=       -0.037102810299 Rises=F Damp=F
 DIIS: error= 7.42D-03 at cycle   4 NSaved=   4.
 NSaved= 4 IEnMin= 4 EnMin= -841.794069014636     IErMin= 4 ErrMin= 7.42D-03
 ErrMax= 7.42D-03  0.00D+00 EMaxC= 1.00D-01 BMatC= 1.77D-02 BMatP= 6.24D-02
 IDIUse=3 WtCom= 9.26D-01 WtEn= 7.42D-02
 Coeff-Com: -0.320D-01 0.118D+00 0.368D+00 0.546D+00
 Coeff-En:   0.000D+00 0.000D+00 0.248D+00 0.752D+00
 Coeff:     -0.296D-01 0.109D+00 0.359D+00 0.561D+00
 Gap=     0.206 Goal=   None    Shift=    0.000
 RMSDP=2.15D-03 MaxDP=1.42D-01 DE=-3.71D-02 OVMax= 2.47D-02

 Cycle   5  Pass 1  IDiag  1:
 RMSU=  7.28D-04    CP:  5.43D-01  1.28D+00  7.98D-01  6.62D-01
 E= -841.807432741721     Delta-E=       -0.013363727085 Rises=F Damp=F
 DIIS: error= 8.38D-04 at cycle   5 NSaved=   5.
 NSaved= 5 IEnMin= 5 EnMin= -841.807432741721     IErMin= 5 ErrMin= 8.38D-04
 ErrMax= 8.38D-04  0.00D+00 EMaxC= 1.00D-01 BMatC= 3.16D-04 BMatP= 1.77D-02
 IDIUse=3 WtCom= 9.92D-01 WtEn= 8.38D-03
 Coeff-Com: -0.883D-02 0.265D-01 0.130D+00 0.249D+00 0.603D+00
 Coeff-En:   0.000D+00 0.000D+00 0.000D+00 0.000D+00 0.100D+01
 Coeff:     -0.876D-02 0.263D-01 0.129D+00 0.247D+00 0.607D+00
 Gap=     0.208 Goal=   None    Shift=    0.000
 RMSDP=3.42D-04 MaxDP=2.56D-02 DE=-1.34D-02 OVMax= 5.02D-03

 Cycle   6  Pass 1  IDiag  1:
 RMSU=  2.16D-04    CP:  5.44D-01  1.27D+00  8.24D-01  6.88D-01  7.72D-01
 E= -841.807655276422     Delta-E=       -0.000222534701 Rises=F Damp=F
 DIIS: error= 3.62D-04 at cycle   6 NSaved=   6.
 NSaved= 6 IEnMin= 6 EnMin= -841.807655276422     IErMin= 6 ErrMin= 3.62D-04
 ErrMax= 3.62D-04  0.00D+00 EMaxC= 1.00D-01 BMatC= 4.91D-05 BMatP= 3.16D-04
 IDIUse=3 WtCom= 9.96D-01 WtEn= 3.62D-03
 Coeff-Com: -0.173D-02 0.281D-02 0.331D-01 0.784D-01 0.335D+00 0.552D+00
 Coeff-En:   0.000D+00 0.000D+00 0.000D+00 0.000D+00 0.791D-01 0.921D+00
 Coeff:     -0.172D-02 0.280D-02 0.330D-01 0.781D-01 0.334D+00 0.553D+00
 Gap=     0.208 Goal=   None    Shift=    0.000
 RMSDP=1.32D-04 MaxDP=9.93D-03 DE=-2.23D-04 OVMax= 2.91D-03

 Cycle   7  Pass 1  IDiag  1:
 RMSU=  1.04D-04    CP:  5.44D-01  1.27D+00  8.29D-01  7.02D-01  7.42D-01
                    CP:  1.13D+00
 E= -841.807695457570     Delta-E=       -0.000040181148 Rises=F Damp=F
 DIIS: error= 1.32D-04 at cycle   7 NSaved=   7.
 NSaved= 7 IEnMin= 7 EnMin= -841.807695457570     IErMin= 7 ErrMin= 1.32D-04
 ErrMax= 1.32D-04  0.00D+00 EMaxC= 1.00D-01 BMatC= 5.38D-06 BMatP= 4.91D-05
 IDIUse=3 WtCom= 9.99D-01 WtEn= 1.32D-03
 Coeff-Com:  0.447D-03-0.265D-02-0.137D-02 0.472D-02 0.960D-01 0.295D+00
 Coeff-Com:  0.608D+00
 Coeff-En:   0.000D+00 0.000D+00 0.000D+00 0.000D+00 0.000D+00 0.469D-01
 Coeff-En:   0.953D+00
 Coeff:      0.446D-03-0.265D-02-0.137D-02 0.471D-02 0.959D-01 0.294D+00
 Coeff:      0.609D+00
 Gap=     0.208 Goal=   None    Shift=    0.000
 RMSDP=4.76D-05 MaxDP=6.53D-03 DE=-4.02D-05 OVMax= 7.93D-04

 Cycle   8  Pass 1  IDiag  1:
 RMSU=  2.92D-05    CP:  5.44D-01  1.27D+00  8.30D-01  7.09D-01  7.50D-01
                    CP:  1.20D+00  9.00D-01
 E= -841.807700654182     Delta-E=       -0.000005196612 Rises=F Damp=F
 DIIS: error= 3.15D-05 at cycle   8 NSaved=   8.
 NSaved= 8 IEnMin= 8 EnMin= -841.807700654182     IErMin= 8 ErrMin= 3.15D-05
 ErrMax= 3.15D-05  0.00D+00 EMaxC= 1.00D-01 BMatC= 4.23D-07 BMatP= 5.38D-06
 IDIUse=1 WtCom= 1.00D+00 WtEn= 0.00D+00
 Coeff-Com:  0.455D-03-0.166D-02-0.394D-02-0.663D-02 0.814D-02 0.657D-01
 Coeff-Com:  0.263D+00 0.675D+00
 Coeff:      0.455D-03-0.166D-02-0.394D-02-0.663D-02 0.814D-02 0.657D-01
 Coeff:      0.263D+00 0.675D+00
 Gap=     0.208 Goal=   None    Shift=    0.000
 RMSDP=2.50D-05 MaxDP=3.85D-03 DE=-5.20D-06 OVMax= 2.56D-04

 Cycle   9  Pass 1  IDiag  1:
 RMSU=  8.40D-06    CP:  5.44D-01  1.27D+00  8.31D-01  7.09D-01  7.51D-01
                    CP:  1.25D+00  9.85D-01  1.06D+00
 E= -841.807701056369     Delta-E=       -0.000000402187 Rises=F Damp=F
 DIIS: error= 9.70D-06 at cycle   9 NSaved=   9.
 NSaved= 9 IEnMin= 9 EnMin= -841.807701056369     IErMin= 9 ErrMin= 9.70D-06
 ErrMax= 9.70D-06  0.00D+00 EMaxC= 1.00D-01 BMatC= 6.12D-08 BMatP= 4.23D-07
 IDIUse=1 WtCom= 1.00D+00 WtEn= 0.00D+00
 Coeff-Com:  0.218D-03-0.640D-03-0.191D-02-0.415D-02-0.555D-02 0.320D-02
 Coeff-Com:  0.697D-01 0.326D+00 0.613D+00
 Coeff:      0.218D-03-0.640D-03-0.191D-02-0.415D-02-0.555D-02 0.320D-02
 Coeff:      0.697D-01 0.326D+00 0.613D+00
 Gap=     0.208 Goal=   None    Shift=    0.000
 RMSDP=4.64D-06 MaxDP=2.78D-04 DE=-4.02D-07 OVMax= 8.72D-05

 Cycle  10  Pass 1  IDiag  1:
 RMSU=  3.27D-06    CP:  5.44D-01  1.27D+00  8.31D-01  7.09D-01  7.51D-01
                    CP:  1.26D+00  9.96D-01  1.03D+00  9.55D-01
 E= -841.807701111596     Delta-E=       -0.000000055227 Rises=F Damp=F
 DIIS: error= 4.21D-06 at cycle  10 NSaved=  10.
 NSaved=10 IEnMin=10 EnMin= -841.807701111596     IErMin=10 ErrMin= 4.21D-06
 ErrMax= 4.21D-06  0.00D+00 EMaxC= 1.00D-01 BMatC= 6.36D-09 BMatP= 6.12D-08
 IDIUse=1 WtCom= 1.00D+00 WtEn= 0.00D+00
 Coeff-Com:  0.194D-04 0.288D-05-0.187D-04-0.457D-03-0.327D-02-0.950D-02
 Coeff-Com: -0.172D-01 0.986D-02 0.247D+00 0.774D+00
 Coeff:      0.194D-04 0.288D-05-0.187D-04-0.457D-03-0.327D-02-0.950D-02
 Coeff:     -0.172D-01 0.986D-02 0.247D+00 0.774D+00
 Gap=     0.208 Goal=   None    Shift=    0.000
 RMSDP=4.02D-06 MaxDP=6.13D-04 DE=-5.52D-08 OVMax= 3.76D-05

 Cycle  11  Pass 1  IDiag  1:
 RMSU=  1.05D-06    CP:  5.44D-01  1.27D+00  8.31D-01  7.09D-01  7.51D-01
                    CP:  1.27D+00  1.01D+00  1.10D+00  1.10D+00  7.63D-01
 E= -841.807701118190     Delta-E=       -0.000000006594 Rises=F Damp=F
 DIIS: error= 1.46D-06 at cycle  11 NSaved=  11.
 NSaved=11 IEnMin=11 EnMin= -841.807701118190     IErMin=11 ErrMin= 1.46D-06
 ErrMax= 1.46D-06  0.00D+00 EMaxC= 1.00D-01 BMatC= 9.19D-10 BMatP= 6.36D-09
 IDIUse=1 WtCom= 1.00D+00 WtEn= 0.00D+00
 Coeff-Com: -0.119D-04 0.630D-04 0.179D-03 0.190D-03-0.102D-02-0.455D-02
 Coeff-Com: -0.145D-01-0.300D-01 0.401D-01 0.364D+00 0.645D+00
 Coeff:     -0.119D-04 0.630D-04 0.179D-03 0.190D-03-0.102D-02-0.455D-02
 Coeff:     -0.145D-01-0.300D-01 0.401D-01 0.364D+00 0.645D+00
 Gap=     0.208 Goal=   None    Shift=    0.000
 RMSDP=6.84D-07 MaxDP=3.92D-05 DE=-6.59D-09 OVMax= 1.12D-05

 Cycle  12  Pass 1  IDiag  1:
 RMSU=  3.02D-07    CP:  5.44D-01  1.27D+00  8.31D-01  7.09D-01  7.51D-01
                    CP:  1.27D+00  1.01D+00  1.09D+00  1.11D+00  8.76D-01
                    CP:  8.78D-01
 E= -841.807701119123     Delta-E=       -0.000000000933 Rises=F Damp=F
 DIIS: error= 3.21D-07 at cycle  12 NSaved=  12.
 NSaved=12 IEnMin=12 EnMin= -841.807701119123     IErMin=12 ErrMin= 3.21D-07
 ErrMax= 3.21D-07  0.00D+00 EMaxC= 1.00D-01 BMatC= 6.08D-11 BMatP= 9.19D-10
 IDIUse=1 WtCom= 1.00D+00 WtEn= 0.00D+00
 Coeff-Com: -0.661D-05 0.221D-04 0.676D-04 0.116D-03-0.425D-05-0.421D-03
 Coeff-Com: -0.261D-02-0.117D-01-0.173D-01 0.411D-01 0.226D+00 0.765D+00
 Coeff:     -0.661D-05 0.221D-04 0.676D-04 0.116D-03-0.425D-05-0.421D-03
 Coeff:     -0.261D-02-0.117D-01-0.173D-01 0.411D-01 0.226D+00 0.765D+00
 Gap=     0.208 Goal=   None    Shift=    0.000
 RMSDP=1.38D-07 MaxDP=1.45D-05 DE=-9.33D-10 OVMax= 3.30D-06

 Cycle  13  Pass 1  IDiag  1:
 RMSU=  8.04D-08    CP:  5.44D-01  1.27D+00  8.31D-01  7.09D-01  7.51D-01
                    CP:  1.27D+00  1.01D+00  1.09D+00  1.11D+00  8.90D-01
                    CP:  9.24D-01  1.05D+00
 E= -841.807701119222     Delta-E=       -0.000000000099 Rises=F Damp=F
 DIIS: error= 1.72D-07 at cycle  13 NSaved=  13.
 NSaved=13 IEnMin=13 EnMin= -841.807701119222     IErMin=13 ErrMin= 1.72D-07
 ErrMax= 1.72D-07  0.00D+00 EMaxC= 1.00D-01 BMatC= 1.00D-11 BMatP= 6.08D-11
 IDIUse=1 WtCom= 1.00D+00 WtEn= 0.00D+00
 Coeff-Com: -0.169D-05 0.349D-05 0.138D-04 0.318D-04 0.999D-04 0.257D-03
 Coeff-Com:  0.365D-03-0.245D-02-0.115D-01-0.175D-01 0.421D-01 0.340D+00
 Coeff-Com:  0.649D+00
 Coeff:     -0.169D-05 0.349D-05 0.138D-04 0.318D-04 0.999D-04 0.257D-03
 Coeff:      0.365D-03-0.245D-02-0.115D-01-0.175D-01 0.421D-01 0.340D+00
 Coeff:      0.649D+00
 Gap=     0.208 Goal=   None    Shift=    0.000
 RMSDP=8.77D-08 MaxDP=1.50D-05 DE=-9.87D-11 OVMax= 1.64D-06

 Cycle  14  Pass 1  IDiag  1:
 RMSU=  3.91D-08    CP:  5.44D-01  1.27D+00  8.31D-01  7.09D-01  7.51D-01
                    CP:  1.27D+00  1.01D+00  1.09D+00  1.11D+00  8.92D-01
                    CP:  9.36D-01  1.10D+00  1.00D+00
 E= -841.807701119278     Delta-E=       -0.000000000056 Rises=F Damp=F
 DIIS: error= 6.77D-08 at cycle  14 NSaved=  14.
 NSaved=14 IEnMin=14 EnMin= -841.807701119278     IErMin=14 ErrMin= 6.77D-08
 ErrMax= 6.77D-08  0.00D+00 EMaxC= 1.00D-01 BMatC= 1.18D-12 BMatP= 1.00D-11
 IDIUse=1 WtCom= 1.00D+00 WtEn= 0.00D+00
 Coeff-Com:  0.262D-06-0.149D-05-0.258D-05-0.285D-05 0.393D-04 0.135D-03
 Coeff-Com:  0.476D-03 0.427D-03-0.195D-02-0.122D-01-0.106D-01 0.302D-01
 Coeff-Com:  0.258D+00 0.735D+00
 Coeff:      0.262D-06-0.149D-05-0.258D-05-0.285D-05 0.393D-04 0.135D-03
 Coeff:      0.476D-03 0.427D-03-0.195D-02-0.122D-01-0.106D-01 0.302D-01
 Coeff:      0.258D+00 0.735D+00
 Gap=     0.208 Goal=   None    Shift=    0.000
 RMSDP=2.52D-08 MaxDP=1.61D-06 DE=-5.59D-11 OVMax= 6.46D-07

 Cycle  15  Pass 1  IDiag  1:
 RMSU=  1.23D-08    CP:  5.44D-01  1.27D+00  8.31D-01  7.09D-01  7.51D-01
                    CP:  1.27D+00  1.01D+00  1.09D+00  1.11D+00  8.90D-01
                    CP:  9.42D-01  1.12D+00  1.10D+00  1.02D+00
 E= -841.807701119319     Delta-E=       -0.000000000042 Rises=F Damp=F
 DIIS: error= 3.50D-08 at cycle  15 NSaved=  15.
 NSaved=15 IEnMin=15 EnMin= -841.807701119319     IErMin=15 ErrMin= 3.50D-08
 ErrMax= 3.50D-08  0.00D+00 EMaxC= 1.00D-01 BMatC= 2.40D-13 BMatP= 1.18D-12
 IDIUse=1 WtCom= 1.00D+00 WtEn= 0.00D+00
 Coeff-Com:  0.350D-06-0.116D-05-0.290D-05-0.521D-05 0.740D-05 0.304D-04
 Coeff-Com:  0.186D-03 0.524D-03 0.577D-03-0.395D-02-0.118D-01-0.349D-01
 Coeff-Com:  0.451D-01 0.390D+00 0.614D+00
 Coeff:      0.350D-06-0.116D-05-0.290D-05-0.521D-05 0.740D-05 0.304D-04
 Coeff:      0.186D-03 0.524D-03 0.577D-03-0.395D-02-0.118D-01-0.349D-01
 Coeff:      0.451D-01 0.390D+00 0.614D+00
 Gap=     0.208 Goal=   None    Shift=    0.000
 RMSDP=1.90D-08 MaxDP=3.79D-06 DE=-4.18D-11 OVMax= 2.61D-07

 Cycle  16  Pass 1  IDiag  1:
 RMSU=  3.93D-09    CP:  5.44D-01  1.27D+00  8.31D-01  7.09D-01  7.51D-01
                    CP:  1.27D+00  1.01D+00  1.09D+00  1.11D+00  8.90D-01
                    CP:  9.42D-01  1.14D+00  1.14D+00  1.16D+00  9.21D-01
 E= -841.807701119265     Delta-E=        0.000000000055 Rises=F Damp=F
 DIIS: error= 7.29D-09 at cycle  16 NSaved=  16.
 NSaved=16 IEnMin=15 EnMin= -841.807701119319     IErMin=16 ErrMin= 7.29D-09
 ErrMax= 7.29D-09  0.00D+00 EMaxC= 1.00D-01 BMatC= 1.85D-14 BMatP= 2.40D-13
 IDIUse=1 WtCom= 1.00D+00 WtEn= 0.00D+00
 Coeff-Com:  0.866D-07-0.176D-06-0.696D-06-0.131D-05-0.454D-05-0.130D-04
 Coeff-Com: -0.205D-04 0.114D-03 0.538D-03 0.100D-02-0.205D-02-0.172D-01
 Coeff-Com: -0.301D-01 0.386D-02 0.210D+00 0.834D+00
 Coeff:      0.866D-07-0.176D-06-0.696D-06-0.131D-05-0.454D-05-0.130D-04
 Coeff:     -0.205D-04 0.114D-03 0.538D-03 0.100D-02-0.205D-02-0.172D-01
 Coeff:     -0.301D-01 0.386D-02 0.210D+00 0.834D+00
 Gap=     0.208 Goal=   None    Shift=    0.000
 RMSDP=5.42D-09 MaxDP=8.77D-07 DE= 5.46D-11 OVMax= 1.12D-07

 SCF Done:  E(RMN15) =  -841.807701119     A.U. after   16 cycles
            NFock= 16  Conv=0.54D-08     -V/T= 2.0032
 KE= 8.391180668278D+02 PE=-4.509591869202D+03 EE= 1.555601138366D+03
 Leave Link  502 at Wed Dec  6 22:12:07 2023, MaxMem=  2147483648 cpu:            4610.6 elap:             181.7
 (Enter /opt/gaussian/g16-c01/g16/l601.exe)
 Copying SCF densities to generalized density rwf, IOpCl= 0 IROHF=0.

 **********************************************************************

            Population analysis using the SCF Density.

 **********************************************************************

 Orbital symmetries:
       Occupied  (A) (A) (A) (A) (A) (A) (A) (A) (A) (A) (A) (A)
                 (A) (A) (A) (A) (A) (A) (A) (A) (A) (A) (A) (A)
                 (A) (A) (A) (A) (A) (A) (A) (A) (A) (A) (A) (A)
                 (A) (A) (A) (A) (A) (A) (A) (A) (A) (A) (A) (A)
                 (A) (A) (A) (A) (A) (A) (A) (A) (A) (A) (A) (A)
                 (A) (A) (A) (A) (A) (A)
       Virtual   (A) (A) (A) (A) (A) (A) (A) (A) (A) (A) (A) (A)
                 (A) (A) (A) (A) (A) (A) (A) (A) (A) (A) (A) (A)
                 (A) (A) (A) (A) (A) (A) (A) (A) (A) (A) (A) (A)
                 (A) (A) (A) (A) (A) (A) (A) (A) (A) (A) (A) (A)
                 (A) (A) (A) (A) (A) (A) (A) (A) (A) (A) (A) (A)
                 (A) (A) (A) (A) (A) (A) (A) (A) (A) (A) (A) (A)
                 (A) (A) (A) (A) (A) (A) (A) (A) (A) (A) (A) (A)
                 (A) (A) (A) (A) (A) (A) (A) (A) (A) (A) (A) (A)
                 (A) (A) (A) (A) (A) (A) (A) (A) (A) (A) (A) (A)
                 (A) (A) (A) (A) (A) (A) (A) (A) (A) (A) (A) (A)
                 (A) (A) (A) (A) (A) (A) (A) (A) (A) (A) (A) (A)
                 (A) (A) (A) (A) (A) (A) (A) (A) (A) (A) (A) (A)
                 (A) (A) (A) (A) (A) (A) (A) (A) (A) (A) (A) (A)
                 (A) (A) (A) (A) (A) (A) (A) (A) (A) (A) (A) (A)
                 (A) (A) (A) (A) (A) (A) (A) (A) (A) (A) (A) (A)
                 (A) (A) (A) (A) (A) (A) (A) (A) (A) (A) (A) (A)
                 (A) (A) (A) (A) (A) (A) (A) (A) (A) (A) (A) (A)
                 (A) (A) (A) (A) (A) (A) (A) (A) (A) (A) (A) (A)
                 (A) (A) (A) (A) (A) (A) (A) (A) (A) (A) (A) (A)
                 (A) (A) (A) (A) (A) (A) (A) (A) (A) (A) (A) (A)
                 (A) (A) (A) (A) (A) (A) (A) (A) (A) (A) (A) (A)
                 (A) (A) (A) (A) (A) (A) (A) (A) (A) (A) (A) (A)
                 (A) (A) (A) (A) (A) (A) (A) (A) (A) (A) (A) (A)
                 (A) (A) (A) (A) (A) (A) (A) (A) (A) (A) (A) (A)
                 (A) (A) (A) (A) (A) (A) (A) (A) (A) (A) (A) (A)
                 (A) (A) (A) (A) (A) (A) (A) (A) (A) (A) (A) (A)
                 (A) (A) (A) (A) (A) (A) (A) (A) (A) (A) (A) (A)
                 (A) (A) (A) (A) (A) (A) (A) (A) (A) (A) (A) (A)
                 (A) (A) (A) (A) (A) (A) (A) (A) (A) (A) (A) (A)
                 (A) (A) (A) (A) (A) (A) (A) (A) (A) (A) (A) (A)
                 (A) (A) (A) (A) (A) (A) (A) (A) (A) (A) (A) (A)
                 (A) (A) (A) (A) (A) (A) (A) (A) (A) (A) (A) (A)
                 (A) (A) (A) (A) (A) (A) (A) (A) (A) (A) (A) (A)
                 (A) (A) (A) (A) (A) (A) (A) (A) (A) (A) (A) (A)
                 (A) (A) (A) (A) (A) (A) (A) (A) (A) (A) (A) (A)
                 (A) (A) (A) (A) (A) (A) (A) (A) (A) (A) (A)
 The electronic state is 1-A.
 Alpha  occ. eigenvalues --  -18.87091 -18.83552 -18.79841 -10.18336 -10.12561
 Alpha  occ. eigenvalues --  -10.10907 -10.09730 -10.07659 -10.07476 -10.07334
 Alpha  occ. eigenvalues --  -10.07114 -10.06862 -10.06577 -10.05965 -10.05218
 Alpha  occ. eigenvalues --  -10.05121 -10.05090 -10.04397 -10.04395  -1.17049
 Alpha  occ. eigenvalues --   -1.11366  -1.07680  -0.94248  -0.91393  -0.86395
 Alpha  occ. eigenvalues --   -0.84167  -0.82293  -0.80135  -0.78730  -0.74894
 Alpha  occ. eigenvalues --   -0.70766  -0.69435  -0.67112  -0.66132  -0.64137
 Alpha  occ. eigenvalues --   -0.61902  -0.58843  -0.56555  -0.55442  -0.54272
 Alpha  occ. eigenvalues --   -0.53625  -0.53191  -0.52521  -0.51367  -0.50600
 Alpha  occ. eigenvalues --   -0.49682  -0.49000  -0.48686  -0.47248  -0.45696
 Alpha  occ. eigenvalues --   -0.44296  -0.43968  -0.43169  -0.42795  -0.42014
 Alpha  occ. eigenvalues --   -0.41807  -0.40828  -0.39889  -0.37192  -0.36863
 Alpha  occ. eigenvalues --   -0.33899  -0.33286  -0.31701  -0.29564  -0.27927
 Alpha  occ. eigenvalues --   -0.26097
 Alpha virt. eigenvalues --   -0.05277  -0.03189   0.00443   0.01600   0.02654
 Alpha virt. eigenvalues --    0.03219   0.04199   0.04699   0.04835   0.05145
 Alpha virt. eigenvalues --    0.05962   0.06478   0.06800   0.07378   0.07495
 Alpha virt. eigenvalues --    0.07881   0.08608   0.09128   0.09553   0.10247
 Alpha virt. eigenvalues --    0.10444   0.11156   0.11768   0.11937   0.12451
 Alpha virt. eigenvalues --    0.12861   0.13060   0.13434   0.13536   0.14107
 Alpha virt. eigenvalues --    0.14309   0.14666   0.14974   0.15008   0.15562
 Alpha virt. eigenvalues --    0.15691   0.15937   0.16166   0.16486   0.16913
 Alpha virt. eigenvalues --    0.17208   0.17668   0.17885   0.18054   0.18335
 Alpha virt. eigenvalues --    0.18584   0.18772   0.19212   0.19382   0.19640
 Alpha virt. eigenvalues --    0.19885   0.20156   0.20213   0.20728   0.21005
 Alpha virt. eigenvalues --    0.21193   0.21925   0.22434   0.22704   0.23076
 Alpha virt. eigenvalues --    0.23364   0.23792   0.24329   0.24936   0.25248
 Alpha virt. eigenvalues --    0.25533   0.25942   0.26076   0.26486   0.26909
 Alpha virt. eigenvalues --    0.27840   0.28277   0.28460   0.28769   0.29017
 Alpha virt. eigenvalues --    0.29490   0.29660   0.29772   0.29912   0.30633
 Alpha virt. eigenvalues --    0.31042   0.31525   0.32076   0.32297   0.32696
 Alpha virt. eigenvalues --    0.33051   0.33193   0.33980   0.34665   0.34822
 Alpha virt. eigenvalues --    0.35060   0.35441   0.35586   0.35901   0.35990
 Alpha virt. eigenvalues --    0.37054   0.37319   0.37779   0.38144   0.38549
 Alpha virt. eigenvalues --    0.38974   0.39237   0.39814   0.40074   0.40247
 Alpha virt. eigenvalues --    0.40739   0.41121   0.42065   0.42789   0.43160
 Alpha virt. eigenvalues --    0.43416   0.43620   0.44956   0.46698   0.47367
 Alpha virt. eigenvalues --    0.49380   0.49922   0.50981   0.51264   0.52654
 Alpha virt. eigenvalues --    0.53751   0.54192   0.54866   0.55766   0.56464
 Alpha virt. eigenvalues --    0.57886   0.58630   0.58886   0.59004   0.59364
 Alpha virt. eigenvalues --    0.59879   0.60582   0.60941   0.61367   0.61754
 Alpha virt. eigenvalues --    0.62229   0.62471   0.63708   0.63938   0.65075
 Alpha virt. eigenvalues --    0.65787   0.65919   0.67099   0.67480   0.68269
 Alpha virt. eigenvalues --    0.69070   0.69510   0.70081   0.70651   0.70734
 Alpha virt. eigenvalues --    0.71817   0.72174   0.72878   0.73090   0.74163
 Alpha virt. eigenvalues --    0.74784   0.75440   0.76318   0.76428   0.76970
 Alpha virt. eigenvalues --    0.78215   0.79425   0.80348   0.81493   0.81796
 Alpha virt. eigenvalues --    0.82198   0.82933   0.83928   0.85023   0.86427
 Alpha virt. eigenvalues --    0.87779   0.87989   0.89205   0.89901   0.90237
 Alpha virt. eigenvalues --    0.91320   0.92059   0.92739   0.93172   0.94191
 Alpha virt. eigenvalues --    0.94886   0.95495   0.95809   0.96696   0.96887
 Alpha virt. eigenvalues --    0.98085   0.99560   0.99884   1.00816   1.00907
 Alpha virt. eigenvalues --    1.02608   1.03122   1.04040   1.04886   1.05656
 Alpha virt. eigenvalues --    1.05886   1.06418   1.07303   1.07960   1.08736
 Alpha virt. eigenvalues --    1.09325   1.09552   1.10591   1.10987   1.12449
 Alpha virt. eigenvalues --    1.14159   1.14847   1.15664   1.16846   1.18115
 Alpha virt. eigenvalues --    1.20363   1.21055   1.25166   1.26696   1.28026
 Alpha virt. eigenvalues --    1.29973   1.32194   1.32644   1.34098   1.34689
 Alpha virt. eigenvalues --    1.35984   1.37594   1.38497   1.40881   1.42140
 Alpha virt. eigenvalues --    1.45123   1.46050   1.46525   1.47149   1.49015
 Alpha virt. eigenvalues --    1.50567   1.50629   1.51125   1.51589   1.53873
 Alpha virt. eigenvalues --    1.55197   1.55296   1.55788   1.56311   1.57359
 Alpha virt. eigenvalues --    1.58725   1.59419   1.60389   1.61416   1.62029
 Alpha virt. eigenvalues --    1.63783   1.66078   1.66172   1.67949   1.69162
 Alpha virt. eigenvalues --    1.70080   1.70434   1.71035   1.72317   1.73181
 Alpha virt. eigenvalues --    1.73476   1.74491   1.75064   1.77579   1.78228
 Alpha virt. eigenvalues --    1.78540   1.79614   1.80752   1.82575   1.84100
 Alpha virt. eigenvalues --    1.85121   1.85355   1.86217   1.87623   1.88813
 Alpha virt. eigenvalues --    1.88925   1.90740   1.90781   1.91737   1.92736
 Alpha virt. eigenvalues --    1.93872   1.94178   1.95430   1.96136   1.97338
 Alpha virt. eigenvalues --    1.97863   1.98333   2.01798   2.02620   2.03139
 Alpha virt. eigenvalues --    2.04636   2.05545   2.07538   2.08259   2.09290
 Alpha virt. eigenvalues --    2.10750   2.11248   2.12199   2.13072   2.15138
 Alpha virt. eigenvalues --    2.17048   2.19231   2.22148   2.24313   2.27489
 Alpha virt. eigenvalues --    2.29185   2.29624   2.29981   2.35027   2.35867
 Alpha virt. eigenvalues --    2.41527   2.42052   2.42594   2.43036   2.43965
 Alpha virt. eigenvalues --    2.44131   2.45166   2.47115   2.49112   2.54228
 Alpha virt. eigenvalues --    2.54702   2.57331   2.58462   2.62005   2.62617
 Alpha virt. eigenvalues --    2.63148   2.65232   2.65584   2.66428   2.67692
 Alpha virt. eigenvalues --    2.68584   2.69681   2.70125   2.70576   2.72232
 Alpha virt. eigenvalues --    2.72882   2.73796   2.74314   2.74774   2.75944
 Alpha virt. eigenvalues --    2.76509   2.78050   2.78145   2.79163   2.79992
 Alpha virt. eigenvalues --    2.81978   2.82996   2.83886   2.84970   2.86036
 Alpha virt. eigenvalues --    2.87608   2.88369   2.89677   2.90132   2.90950
 Alpha virt. eigenvalues --    2.94418   2.96930   2.97409   3.02545   3.04985
 Alpha virt. eigenvalues --    3.05409   3.05457   3.08049   3.08678   3.09167
 Alpha virt. eigenvalues --    3.11645   3.14089   3.15326   3.15685   3.17947
 Alpha virt. eigenvalues --    3.20896   3.26630   3.27943   3.30568   3.33065
 Alpha virt. eigenvalues --    3.33578   3.34327   3.35951   3.42707   3.43448
 Alpha virt. eigenvalues --    3.44230   3.45006   3.49066   3.50476   3.51556
 Alpha virt. eigenvalues --    3.58627   3.59896   3.60929   3.69555   3.71825
 Alpha virt. eigenvalues --    3.73420   3.74296   3.75755   3.91616   3.93516
 Alpha virt. eigenvalues --    3.95158   4.00976   4.01888   4.05010   4.06828
 Alpha virt. eigenvalues --    4.08352   4.11298   4.14216   4.18545   4.25817
 Alpha virt. eigenvalues --    4.45434   4.71035   4.72094   4.92651   4.96651
 Alpha virt. eigenvalues --    4.98350   5.12006   5.30148   5.37506   5.59185
 Alpha virt. eigenvalues --    5.66880   5.80850  22.45701  22.56545  22.68907
 Alpha virt. eigenvalues --   22.77199  22.80873  22.84318  22.84460  22.84887
 Alpha virt. eigenvalues --   22.85938  22.93613  22.96267  22.97215  22.97312
 Alpha virt. eigenvalues --   23.04390  23.06630  23.14638  47.47407  47.50914
 Alpha virt. eigenvalues --   47.59852
          Condensed to atoms (all electrons):
               1          2          3          4          5          6
     1  O    8.186307  -0.079194  -0.000018   0.188964   0.433107   0.238677
     2  O   -0.079194   8.118538   0.000000   0.028140  -0.114108   0.031676
     3  O   -0.000018   0.000000   8.199935   0.000654   0.007720   0.000394
     4  C    0.188964   0.028140   0.000654  14.096428   1.294730   2.583188
     5  C    0.433107  -0.114108   0.007720   1.294730  12.305804  -4.882345
     6  C    0.238677   0.031676   0.000394   2.583188  -4.882345  15.213793
     7  C   -0.398507  -0.016801   0.012188  -3.020623   1.556042  -3.999295
     8  C   -0.022374  -0.008913   0.040504  -1.586125  -0.837578  -1.409115
     9  C   -0.156198   0.015180   0.000034  -2.368895  -0.972718  -0.607129
    10  C   -0.224453   0.302866  -0.000174  -0.816942   1.026015  -1.889053
    11  C   -0.064336   0.021899   0.000009  -3.210505  -2.080304   0.377665
    12  C   -0.068575  -0.012005  -0.000000  -2.398486   0.521076   0.187060
    13  C    0.081755   0.042892   0.000002   0.737485  -0.691312   0.051717
    14  C   -0.091950   0.000368  -0.043625  -0.287444   0.041689  -0.293112
    15  C   -0.015094   0.001857   0.014109   0.479030  -0.114137   0.325794
    16  C   -0.009422  -0.000520   0.139419  -0.115509  -0.154269  -0.093014
    17  C    0.016012  -0.000189  -0.554769   0.186273   0.158428   0.141503
    18  C   -0.019557  -0.000254   0.331662  -0.181680  -0.424384  -0.152840
    19  C    0.000344   0.000005   0.192904  -0.003270  -0.025103  -0.002482
    20  H   -0.001453  -0.000256  -0.000616  -0.586034  -0.245766  -0.304241
    21  H   -0.001156   0.001053   0.000014   0.100531  -0.146095   0.139019
    22  H   -0.003942   0.008588  -0.000000   0.014093   0.041649  -0.115969
    23  H   -0.000213  -0.000365  -0.000000   0.005199   0.029476   0.016083
    24  H    0.001521   0.001675   0.000000   0.022022  -0.036297   0.065491
    25  H    0.004370  -0.000583  -0.002449   0.005079   0.028408  -0.017182
    26  H    0.007331  -0.000599  -0.004326   0.019896   0.033671  -0.009039
    27  H   -0.000196   0.000050  -0.022432  -0.001553  -0.026763  -0.000329
    28  H   -0.001471   0.000100  -0.015489  -0.005605  -0.034163  -0.001836
    29  H    0.000007  -0.000000  -0.034412   0.000029   0.001555   0.000097
    30  H   -0.000030  -0.000006  -0.036418   0.000109   0.000795  -0.000224
    31  H    0.000014   0.000000  -0.090989  -0.000102  -0.000922  -0.000065
               7          8          9         10         11         12
     1  O   -0.398507  -0.022374  -0.156198  -0.224453  -0.064336  -0.068575
     2  O   -0.016801  -0.008913   0.015180   0.302866   0.021899  -0.012005
     3  O    0.012188   0.040504   0.000034  -0.000174   0.000009  -0.000000
     4  C   -3.020623  -1.586125  -2.368895  -0.816942  -3.210505  -2.398486
     5  C    1.556042  -0.837578  -0.972718   1.026015  -2.080304   0.521076
     6  C   -3.999295  -1.409115  -0.607129  -1.889053   0.377665   0.187060
     7  C   10.143793   1.384602   0.868641   0.399561  -0.111743  -0.212900
     8  C    1.384602  10.494991   0.197317   0.296671  -0.084916   0.185247
     9  C    0.868641   0.197317   8.125121  -0.560191   1.877852  -0.197269
    10  C    0.399561   0.296671  -0.560191   8.227930  -1.285976   0.691298
    11  C   -0.111743  -0.084916   1.877852  -1.285976  10.657877  -0.354117
    12  C   -0.212900   0.185247  -0.197269   0.691298  -0.354117   7.948815
    13  C   -0.188734  -0.105317  -0.199285  -0.544105   0.198926  -0.325117
    14  C    1.057064  -2.112434   0.210064   0.174225  -0.054244   0.049121
    15  C   -1.283542   1.020813  -0.301829  -0.195450   0.045496  -0.048471
    16  C    0.157318  -0.420373   0.025806   0.028607  -0.009973   0.005970
    17  C   -0.881840  -0.722809  -0.059263  -0.068327   0.010493  -0.009958
    18  C    0.350172  -1.163222   0.114434   0.093357  -0.014636   0.027680
    19  C    0.009837  -0.128112   0.001143   0.001596  -0.000101   0.000125
    20  H    0.620023   0.212070   0.200990   0.056869   0.005044   0.125795
    21  H   -0.034928  -0.039346   0.415159  -0.063368   0.054906  -0.160209
    22  H    0.016448   0.004141   0.038795  -0.027042   0.421309  -0.005208
    23  H   -0.000585   0.003799  -0.130662   0.010644  -0.018261   0.470293
    24  H   -0.010979  -0.002275  -0.008910  -0.002119  -0.131338  -0.040403
    25  H    0.003455  -0.006031  -0.013871   0.000960  -0.006109  -0.001836
    26  H   -0.049338  -0.043150  -0.019696  -0.004621  -0.007443  -0.002879
    27  H   -0.016663  -0.022707   0.000461   0.000404   0.000311   0.000180
    28  H    0.024206   0.007133   0.002664   0.002359   0.000690   0.000406
    29  H    0.000121   0.001218  -0.000011  -0.000073  -0.000002  -0.000006
    30  H    0.000962   0.003973  -0.000049   0.000087  -0.000032   0.000004
    31  H   -0.000434  -0.004504   0.000020   0.000028  -0.000003   0.000002
              13         14         15         16         17         18
     1  O    0.081755  -0.091950  -0.015094  -0.009422   0.016012  -0.019557
     2  O    0.042892   0.000368   0.001857  -0.000520  -0.000189  -0.000254
     3  O    0.000002  -0.043625   0.014109   0.139419  -0.554769   0.331662
     4  C    0.737485  -0.287444   0.479030  -0.115509   0.186273  -0.181680
     5  C   -0.691312   0.041689  -0.114137  -0.154269   0.158428  -0.424384
     6  C    0.051717  -0.293112   0.325794  -0.093014   0.141503  -0.152840
     7  C   -0.188734   1.057064  -1.283542   0.157318  -0.881840   0.350172
     8  C   -0.105317  -2.112434   1.020813  -0.420373  -0.722809  -1.163222
     9  C   -0.199285   0.210064  -0.301829   0.025806  -0.059263   0.114434
    10  C   -0.544105   0.174225  -0.195450   0.028607  -0.068327   0.093357
    11  C    0.198926  -0.054244   0.045496  -0.009973   0.010493  -0.014636
    12  C   -0.325117   0.049121  -0.048471   0.005970  -0.009958   0.027680
    13  C    6.749824   0.004561  -0.002207  -0.000654   0.002197  -0.002758
    14  C    0.004561   9.772493  -4.372587  -0.047539  -0.213199   1.820444
    15  C   -0.002207  -4.372587  13.737263  -2.176570   1.686577  -2.306816
    16  C   -0.000654  -0.047539  -2.176570   9.847887   0.556870  -1.449025
    17  C    0.002197  -0.213199   1.686577   0.556870   9.036654  -3.178015
    18  C   -0.002758   1.820444  -2.306816  -1.449025  -3.178015  11.408244
    19  C   -0.000022   0.118426  -0.363676   0.271670   0.072101  -0.177747
    20  H   -0.034261   0.060231  -0.053675   0.029272  -0.034679   0.071997
    21  H    0.046703  -0.003746   0.013076  -0.003837   0.005477  -0.005730
    22  H   -0.069001  -0.000361   0.000353  -0.000020  -0.000042   0.000050
    23  H   -0.064568   0.000132   0.000072   0.000054  -0.000094   0.000279
    24  H    0.467027  -0.000022   0.000158  -0.000023   0.000056  -0.000063
    25  H    0.000819   0.330777   0.014278   0.017477  -0.102871   0.037605
    26  H    0.001556   0.037455   0.178056   0.137965   0.057865  -0.046064
    27  H   -0.000102  -0.004735   0.009625  -0.046255   0.503795  -0.094939
    28  H   -0.000205   0.034617   0.045084  -0.324469  -0.109503   0.620216
    29  H    0.000003  -0.007340   0.004397  -0.041519  -0.018166   0.054197
    30  H   -0.000000  -0.011941   0.011216  -0.028848  -0.013364   0.035553
    31  H   -0.000000   0.009051  -0.023626   0.087064   0.010411  -0.037048
              19         20         21         22         23         24
     1  O    0.000344  -0.001453  -0.001156  -0.003942  -0.000213   0.001521
     2  O    0.000005  -0.000256   0.001053   0.008588  -0.000365   0.001675
     3  O    0.192904  -0.000616   0.000014  -0.000000  -0.000000   0.000000
     4  C   -0.003270  -0.586034   0.100531   0.014093   0.005199   0.022022
     5  C   -0.025103  -0.245766  -0.146095   0.041649   0.029476  -0.036297
     6  C   -0.002482  -0.304241   0.139019  -0.115969   0.016083   0.065491
     7  C    0.009837   0.620023  -0.034928   0.016448  -0.000585  -0.010979
     8  C   -0.128112   0.212070  -0.039346   0.004141   0.003799  -0.002275
     9  C    0.001143   0.200990   0.415159   0.038795  -0.130662  -0.008910
    10  C    0.001596   0.056869  -0.063368  -0.027042   0.010644  -0.002119
    11  C   -0.000101   0.005044   0.054906   0.421309  -0.018261  -0.131338
    12  C    0.000125   0.125795  -0.160209  -0.005208   0.470293  -0.040403
    13  C   -0.000022  -0.034261   0.046703  -0.069001  -0.064568   0.467027
    14  C    0.118426   0.060231  -0.003746  -0.000361   0.000132  -0.000022
    15  C   -0.363676  -0.053675   0.013076   0.000353   0.000072   0.000158
    16  C    0.271670   0.029272  -0.003837  -0.000020   0.000054  -0.000023
    17  C    0.072101  -0.034679   0.005477  -0.000042  -0.000094   0.000056
    18  C   -0.177747   0.071997  -0.005730   0.000050   0.000279  -0.000063
    19  C    5.078875   0.002510  -0.000097   0.000001   0.000001  -0.000000
    20  H    0.002510   0.740206  -0.029044   0.000908   0.003572  -0.001492
    21  H   -0.000097  -0.029044   0.647886   0.001201  -0.030904   0.000589
    22  H    0.000001   0.000908   0.001201   0.542043  -0.001723  -0.019079
    23  H    0.000001   0.003572  -0.030904  -0.001723   0.579990  -0.021259
    24  H   -0.000000  -0.001492   0.000589  -0.019079  -0.021259   0.576544
    25  H   -0.001346  -0.000204  -0.000073  -0.000001   0.000017   0.000015
    26  H    0.003208  -0.003415  -0.000004  -0.000046  -0.000009   0.000031
    27  H    0.007005   0.002235  -0.000008   0.000008   0.000003  -0.000001
    28  H    0.012710   0.003835   0.000008   0.000017   0.000005  -0.000002
    29  H    0.384300  -0.000074   0.000009  -0.000000  -0.000000   0.000000
    30  H    0.383619  -0.000114  -0.000007  -0.000000   0.000000  -0.000000
    31  H    0.410094   0.000080  -0.000003   0.000000   0.000000  -0.000000
              25         26         27         28         29         30
     1  O    0.004370   0.007331  -0.000196  -0.001471   0.000007  -0.000030
     2  O   -0.000583  -0.000599   0.000050   0.000100  -0.000000  -0.000006
     3  O   -0.002449  -0.004326  -0.022432  -0.015489  -0.034412  -0.036418
     4  C    0.005079   0.019896  -0.001553  -0.005605   0.000029   0.000109
     5  C    0.028408   0.033671  -0.026763  -0.034163   0.001555   0.000795
     6  C   -0.017182  -0.009039  -0.000329  -0.001836   0.000097  -0.000224
     7  C    0.003455  -0.049338  -0.016663   0.024206   0.000121   0.000962
     8  C   -0.006031  -0.043150  -0.022707   0.007133   0.001218   0.003973
     9  C   -0.013871  -0.019696   0.000461   0.002664  -0.000011  -0.000049
    10  C    0.000960  -0.004621   0.000404   0.002359  -0.000073   0.000087
    11  C   -0.006109  -0.007443   0.000311   0.000690  -0.000002  -0.000032
    12  C   -0.001836  -0.002879   0.000180   0.000406  -0.000006   0.000004
    13  C    0.000819   0.001556  -0.000102  -0.000205   0.000003  -0.000000
    14  C    0.330777   0.037455  -0.004735   0.034617  -0.007340  -0.011941
    15  C    0.014278   0.178056   0.009625   0.045084   0.004397   0.011216
    16  C    0.017477   0.137965  -0.046255  -0.324469  -0.041519  -0.028848
    17  C   -0.102871   0.057865   0.503795  -0.109503  -0.018166  -0.013364
    18  C    0.037605  -0.046064  -0.094939   0.620216   0.054197   0.035553
    19  C   -0.001346   0.003208   0.007005   0.012710   0.384300   0.383619
    20  H   -0.000204  -0.003415   0.002235   0.003835  -0.000074  -0.000114
    21  H   -0.000073  -0.000004  -0.000008   0.000008   0.000009  -0.000007
    22  H   -0.000001  -0.000046   0.000008   0.000017  -0.000000  -0.000000
    23  H    0.000017  -0.000009   0.000003   0.000005  -0.000000   0.000000
    24  H    0.000015   0.000031  -0.000001  -0.000002   0.000000  -0.000000
    25  H    0.612815  -0.004600  -0.032390   0.002884  -0.000211  -0.000187
    26  H   -0.004600   0.631209   0.002791  -0.046895   0.000082   0.000514
    27  H   -0.032390   0.002791   0.590319  -0.006973   0.000100   0.000289
    28  H    0.002884  -0.046895  -0.006973   0.655096  -0.005081  -0.006261
    29  H   -0.000211   0.000082   0.000100  -0.005081   0.619089  -0.052545
    30  H   -0.000187   0.000514   0.000289  -0.006261  -0.052545   0.611544
    31  H    0.000083   0.000631   0.000150   0.000341  -0.034752  -0.033866
              31
     1  O    0.000014
     2  O    0.000000
     3  O   -0.090989
     4  C   -0.000102
     5  C   -0.000922
     6  C   -0.000065
     7  C   -0.000434
     8  C   -0.004504
     9  C    0.000020
    10  C    0.000028
    11  C   -0.000003
    12  C    0.000002
    13  C   -0.000000
    14  C    0.009051
    15  C   -0.023626
    16  C    0.087064
    17  C    0.010411
    18  C   -0.037048
    19  C    0.410094
    20  H    0.000080
    21  H   -0.000003
    22  H    0.000000
    23  H    0.000000
    24  H   -0.000000
    25  H    0.000083
    26  H    0.000631
    27  H    0.000150
    28  H    0.000341
    29  H   -0.034752
    30  H   -0.033866
    31  H    0.549097
 Mulliken charges:
               1
     1  O   -0.000268
     2  O   -0.341093
     3  O   -0.133829
     4  C    0.820922
     5  C   -0.693899
     6  C    0.405112
     7  C   -0.377519
     8  C    0.866821
     9  C   -0.497705
    10  C    0.368417
    11  C   -0.238439
    12  C   -0.375632
    13  C   -0.157818
    14  C   -0.176438
    15  C   -0.329577
    16  C   -0.383538
    17  C   -0.477625
    18  C    0.288890
    19  C   -0.248518
    20  H    0.159687
    21  H    0.092924
    22  H    0.152830
    23  H    0.149024
    24  H    0.139132
    25  H    0.130905
    26  H    0.129867
    27  H    0.158319
    28  H    0.145584
    29  H    0.128988
    30  H    0.135229
    31  H    0.159248
 Sum of Mulliken charges =  -0.00000
 Mulliken charges with hydrogens summed into heavy atoms:
               1
     1  O   -0.000268
     2  O   -0.341093
     3  O   -0.133829
     4  C    0.820922
     5  C   -0.693899
     6  C    0.405112
     7  C   -0.217832
     8  C    0.866821
     9  C   -0.404781
    10  C    0.368417
    11  C   -0.085608
    12  C   -0.226608
    13  C   -0.018686
    14  C   -0.045533
    15  C   -0.199710
    16  C   -0.383538
    17  C   -0.319306
    18  C    0.434474
    19  C    0.174948
 Electronic spatial extent (au):  <R**2>=           7009.9334
 Charge=             -0.0000 electrons
 Dipole moment (field-independent basis, Debye):
[...]
 0,0.00001362,0.00000775,0.00001558,0.09562997,-0.09460405,-0.11998139,
 -0.00143367,-0.00480287,0.00239190,-0.00074194,-0.00381011,0.00581878,
 -0.00306632,0.00100774,0.00588973,-0.00054313,0.00057992,-0.00057359,-
 0.00009442,0.00015642,-0.00020734,0.00003723,0.00010411,-0.00007510,0.
 00000042,-0.00000612,0.00001242,0.00000221,-0.00000217,-0.00000019,0.0
 0000408,-0.00000017,0.00000420,0.00000398,0.00001462,-0.00000991,-0.10
 307868,0.10528653,0.11546029,0.00013095,-0.00025166,-0.00018597,0.0000
 3962,-0.00013751,-0.00011043,-0.00099307,-0.00138799,-0.00097230,-0.00
 014551,-0.00007471,-0.00003256,0.00002562,0.00017258,0.00012536,-0.000
 00159,-0.00003634,-0.00002772,0.00105556,0.00188966,0.00097564,0.00853
 011,0.01464276,0.01064227,0.00004705,0.00005652,0.00003478,-0.00007812
 ,0.00012616,0.00011018,0.00002852,0.00001345,0.00000618,-0.00004196,-0
 .00000820,-0.00000245,0.00002772,-0.00002730,-0.00002302,-0.00226693,0
 .00237636,0.00251620,-0.08342011,-0.06815837,-0.04724032,-0.00491037,-
 0.00039677,0.00077867,-0.00098832,0.00028422,0.00019928,-0.00552858,-0
 .02358008,-0.01697043,0.00049213,-0.00027059,-0.00025364,-0.00047999,-
 0.00035545,-0.00020313,-0.00001796,-0.00002417,-0.00001284,0.00000540,
 -0.00000143,-0.00000169,0.00000539,0.00000468,0.00000365,0.00000650,-0
 .00000185,-0.00000171,0.00049108,0.00074502,0.00053460,0.08697655,-0.0
 0006566,0.00027344,0.00007745,0.00002229,0.00002406,0.00004121,-0.0003
 6822,-0.00031181,-0.00009614,-0.00005090,-0.00000256,-0.00008986,0.000
 46874,0.00015359,0.00009894,0.00006779,-0.00000736,-0.00000744,-0.0017
 3635,-0.00115342,0.00229950,-0.00803793,-0.00955767,-0.00942671,0.0000
 3418,-0.00003799,-0.00000011,-0.00006736,0.00002952,-0.00003805,-0.000
 02347,-0.00000254,0.00001185,-0.00000148,0.00001970,0.00001507,0.00001
 080,0.00000797,0.00000428,0.00299750,0.00095349,-0.00392422,-0.0675748
 6,-0.21769993,-0.13110536,-0.00075976,0.00397526,-0.00231983,0.0005745
 8,-0.00004386,0.00079196,0.00018088,-0.00086614,-0.00357082,0.00018923
 ,-0.00017022,-0.00010056,0.00092763,0.00043758,0.00005713,0.00001358,0
 .00004045,-0.00000296,-0.00000134,-0.00000122,0.00000020,0.00000433,0.
 00000287,-0.00000324,-0.00000132,0.00000382,0.00000071,-0.00052999,-0.
 00053009,-0.00048778,0.07379072,0.22567107,-0.00004523,0.00009397,0.00
 025392,0.00001031,0.00005555,0.00000788,-0.00020179,-0.00000490,-0.000
 12668,-0.00001441,-0.00008769,0.00005746,0.00034865,0.00012550,0.00003
 052,0.00005080,0.00000192,-0.00000876,-0.00176288,0.00197485,-0.002342
 88,-0.00648826,-0.01145575,-0.00419461,0.00001781,-0.00000203,-0.00004
 510,-0.00003595,-0.00005546,0.00004932,-0.00002166,0.00000853,-0.00000
 703,0.00000264,0.00001566,0.00001151,0.00000577,0.00000769,0.00000633,
 0.00298507,-0.00386912,0.00260467,-0.04679745,-0.13105250,-0.13088782,
 0.00050406,-0.00235141,0.00531610,0.00041956,0.00081784,-0.00058045,0.
 00097315,-0.00144576,0.00266184,0.00009354,-0.00005944,-0.00011267,0.0
 0076606,0.00017180,0.00031311,0.00001571,0.00000036,0.00004171,-0.0000
 0162,0.00000020,-0.00000102,0.00000338,-0.00000327,0.00000386,-0.00000
 130,0.00000076,0.00000373,-0.00042835,-0.00060208,-0.00023758,0.050161
 73,0.14513060,0.12988255,-0.00009971,0.00024670,0.00019938,0.00000095,
 0.00020816,0.00015432,0.00171452,-0.00090192,-0.00112704,0.00014793,0.
 00007713,0.00004269,-0.00000820,-0.00028966,-0.00022380,0.00001722,0.0
 0006068,0.00004434,0.00017910,-0.00100292,-0.00074206,-0.00493816,-0.0
 0073455,0.00060038,-0.00005398,-0.00003424,-0.00002316,0.00005855,-0.0
 0026012,-0.00019683,-0.00003381,-0.00001698,-0.00000878,0.00004656,-0.
 00000150,-0.00000391,-0.00002728,0.00003387,0.00002685,-0.00484236,-0.
 02325892,-0.01684358,-0.00116831,0.00038659,0.00031042,0.00999126,0.01
 604394,0.01168510,-0.08764102,-0.07474465,-0.05178437,-0.00242364,0.00
 203547,0.00218006,-0.00020530,0.00007350,0.00002658,-0.00037311,-0.000
 12213,-0.00008046,0.00001002,0.00001073,0.00000788,-0.00000722,-0.0000
 0043,0.00000054,-0.00000259,-0.00000274,-0.00000202,-0.00000284,0.0000
 0065,0.00000106,0.00108026,0.00055407,-0.00012580,0.00004113,-0.000037
 05,-0.00008181,0.08804906,-0.00011044,0.00009913,0.00005142,-0.0000290
 4,0.00008060,0.00008796,-0.00068369,-0.00013720,0.00242757,0.00009911,
 0.00002214,0.00002714,-0.00006666,-0.00012496,-0.00004070,-0.00000033,
 0.00002969,0.00002178,0.00013196,0.00004451,-0.00024365,-0.00081160,0.
 00413700,-0.00282366,-0.00004010,-0.00002705,0.00000129,0.00008080,-0.
 00009822,-0.00012390,-0.00001375,-0.00001267,-0.00001679,0.00002704,0.
 00000278,-0.00001245,-0.00001898,0.00001309,0.00002193,0.00002730,0.00
 002842,-0.00241632,0.00080902,0.00005430,0.00069529,-0.00926835,-0.009
 38266,-0.01016053,-0.07347601,-0.22047117,-0.13311234,0.00259789,0.000
 51161,-0.00344168,0.00033228,-0.00011785,0.00028021,-0.00004220,-0.000
 10479,0.00010750,0.00000349,0.00000446,-0.00000254,-0.00000291,0.00000
 207,0.,-0.00000258,-0.00000359,-0.00000090,-0.00000333,0.00000077,-0.0
 0000180,0.00006104,-0.00140178,0.00271439,-0.00001834,-0.00024929,0.00
 023676,0.08094947,0.22755860,-0.00007044,0.00001932,0.00006530,-0.0000
 2495,0.00006663,0.00002026,-0.00096259,0.00244712,-0.00133651,0.000059
 34,0.00002914,-0.00000890,-0.00005531,-0.00002066,-0.00007392,-0.00000
 170,0.00001631,0.00001337,0.00011532,-0.00014221,0.00023376,0.00054213
 ,-0.00283110,0.00578560,-0.00002764,0.00000076,-0.00002093,0.00006084,
 -0.00009319,-0.00001983,-0.00000635,-0.00001651,-0.00000071,0.00001772
 ,-0.00000990,0.00000698,-0.00001312,0.00001719,0.00000050,0.00074338,-
 0.00033261,0.00290687,0.00062867,0.00073313,-0.00046472,-0.00742979,-0
 .01242589,-0.00355016,-0.05082744,-0.13299860,-0.13140095,0.00260490,-
 0.00339091,0.00196689,0.00022210,0.00030329,-0.00031904,-0.00002018,0.
 00011467,-0.00015371,0.00000241,-0.00000320,0.00000479,-0.00000133,-0.
 00000022,0.00000237,-0.00000190,-0.00000089,-0.00000259,-0.00000194,-0
 .00000216,0.00000210,-0.00049835,0.00267031,-0.00294202,-0.00006772,0.
 00023848,-0.00037451,0.05546734,0.14595106,0.12996992,-0.00010913,0.00
 011882,0.00010420,-0.00005096,0.00013811,0.00010807,-0.00070448,0.0019
 0006,0.00123513,0.00015676,0.00012257,0.00006214,-0.00044137,-0.000359
 84,-0.00024575,-0.00002856,0.00003090,0.00003244,-0.00040487,0.0009335
 1,0.00079933,-0.00404910,-0.00245992,-0.00089308,-0.00008199,-0.000024
 83,-0.00000985,0.00014141,-0.00016022,-0.00013340,-0.00001887,-0.00001
 785,-0.00001260,0.00004844,-0.00000880,-0.00001140,-0.00003454,0.00002
 687,0.00002440,-0.00042722,-0.00070619,-0.00056228,-0.01473626,0.01887
 145,0.01576382,0.01037663,-0.00497977,-0.00436124,0.00007016,-0.002109
 32,-0.00111624,-0.17317857,0.10766701,0.09401335,-0.00266474,-0.001934
 53,-0.00124378,-0.00001982,-0.00004601,-0.00003299,0.00000602,0.000000
 93,0.00000038,-0.00000658,0.00000173,0.00000213,-0.00000898,-0.0000058
 1,-0.00000348,-0.00000519,-0.00000077,-0.00000014,-0.00000561,0.000100
 09,0.00000863,0.00104459,-0.00001394,-0.00048130,0.00033172,-0.0004013
 3,-0.00034095,0.18751646,0.00011043,-0.00003642,-0.00007585,0.00003060
 ,-0.00005253,-0.00003492,0.00004732,0.00020489,0.00236956,-0.00005942,
 -0.00006402,0.00009575,-0.00003999,-0.00006226,0.00007002,-0.00001014,
 0.00001039,-0.00004719,-0.00023036,0.00041385,-0.00015723,-0.00210064,
 0.00315853,-0.00250941,0.00002516,0.00001786,-0.00000177,-0.00008821,0
 .00006098,0.00005046,0.00000656,0.00001090,0.00001494,-0.00001587,-0.0
 0000011,0.00000469,0.00001052,-0.00000643,-0.00001420,-0.00097081,-0.0
 0056460,0.00022734,-0.00521570,0.00660158,0.00384016,0.01810067,-0.007
 64441,-0.01016775,-0.00267954,-0.00112212,-0.00468441,0.10726372,-0.14
 824032,-0.09783515,0.00054683,-0.00068292,-0.00039516,-0.00000268,-0.0
 0000652,-0.00000467,-0.00000277,0.00000021,-0.00000151,-0.00000008,-0.
 00000059,-0.00000242,0.00000119,0.00000266,0.00000102,0.00000257,0.000
 00039,0.00000026,0.00007527,-0.00025766,0.00036789,0.00051090,-0.00103
 888,0.00235242,0.00088039,-0.00056523,-0.00043554,-0.11540777,0.149552
 33,0.00009775,-0.00007650,-0.00001585,0.00002679,-0.00004453,-0.000046
 03,-0.00016491,0.00220326,-0.00125871,-0.00007547,0.00007949,-0.000117
 00,-0.00000407,0.00009857,-0.00007524,0.00000160,-0.00005093,0.0000355
 3,-0.00007984,-0.00026126,0.00045905,-0.00062194,-0.00247663,0.0049143
 7,0.00002790,0.00000271,0.00001676,-0.00007889,0.00005687,0.00005480,0
 .00000578,0.00001713,0.00000275,-0.00001674,0.00000406,0.00000014,0.00
 001204,-0.00001567,-0.00000180,-0.00076253,0.00020340,-0.00052863,-0.0
 0242991,0.00168482,0.00362520,0.01307149,-0.00810003,-0.00361581,-0.00
 154698,-0.00473520,0.00195917,0.09371008,-0.09787278,-0.11374129,0.000
 63158,-0.00017371,-0.00041166,-0.00000022,-0.00000081,-0.00000064,-0.0
 0000240,-0.00000184,0.00000136,0.00000076,-0.00000258,0.00000060,0.000
 00181,0.00000164,0.00000225,0.00000239,0.00000056,-0.00000005,-0.00001
 013,0.00036560,-0.00047657,-0.00008478,0.00239903,-0.00239410,0.000627
 03,-0.00032099,-0.00039109,-0.10192319,0.10614200,0.11200169,-0.000011
 85,0.00000940,0.00000057,0.00000094,-0.00000200,-0.00000505,-0.0084767
 3,0.03074643,-0.00300109,-0.00000219,0.00001227,-0.00002186,0.00000437
 ,0.00000013,0.00002380,0.00000441,-0.00000955,0.00001446,0.00002659,0.
 00003024,-0.00010574,0.00017013,-0.00080256,-0.00066119,0.00000211,-0.
 00001246,0.00001785,-0.00000156,0.00000183,0.00001149,-0.00000040,0.00
 000905,-0.00001072,-0.00000171,0.00000525,-0.00001042,0.00000190,-0.00
 000815,0.00000922,0.00095572,0.00043775,0.00058964,-0.00105281,-0.0002
 3243,0.00059556,0.00590688,0.00255860,-0.00043514,-0.00160882,0.000046
 55,0.00078005,0.00069541,-0.00071599,-0.00056406,-0.05080977,-0.016057
 80,0.00503625,0.00000092,0.00000365,-0.00000411,-0.00000039,-0.0000012
 0,0.00000044,0.00000022,-0.00000007,-0.00000007,0.00000004,0.00000059,
 -0.00000020,0.00000039,0.00000023,-0.00000024,-0.00000637,0.00004248,-
 0.00004820,-0.00002168,0.00004119,-0.00004025,0.00007266,-0.00001940,-
 0.00016144,-0.00155790,0.00045370,-0.00139230,0.05349644,0.00017252,-0
 .00014351,-0.00013096,0.00006339,-0.00016030,-0.00013521,0.01438477,-0
 .02135786,-0.00393570,-0.00026688,-0.00006254,-0.00000191,0.00026164,0
 .00018077,0.00009637,-0.00001354,-0.00007302,-0.00005538,-0.00034499,-
 0.00004936,-0.00004180,0.00049830,0.00012420,0.00016489,0.00010403,0.0
 0004508,0.00001736,-0.00015925,0.00018730,0.00016792,0.00002330,0.0000
 4031,0.00002612,-0.00006750,0.00001044,0.00001386,0.00004521,-0.000038
 70,-0.00003552,-0.00037992,0.00004069,-0.00011142,-0.00037364,0.000209
 37,0.00033824,-0.00554315,-0.00086339,-0.00064203,0.00112144,-0.000080
 06,-0.00027516,0.00080773,0.00002284,-0.00024701,-0.01152522,-0.277339
 88,0.08261887,0.00002034,0.00001866,0.00001301,-0.00000514,-0.00000049
 ,0.00000430,0.00000282,-0.00000378,-0.00000194,0.00000667,0.00000605,0
 .00000524,0.00000641,0.00000037,0.00000095,0.00004286,-0.00001237,0.00
 001891,0.00006987,0.00004774,-0.00000047,-0.00009896,0.00002583,0.0001
 6856,-0.00039558,0.00056042,0.00008862,0.00414811,0.30868140,0.0000874
 1,-0.00006395,-0.00004725,0.00002695,-0.00007101,-0.00005602,0.0043434
 9,-0.02298737,0.00590316,-0.00008114,-0.00002626,-0.00000454,0.0000771
 1,0.00007103,0.00003461,-0.00000044,-0.00002261,-0.00002149,-0.0000728
 3,-0.00006164,-0.00000883,0.00014995,0.00011826,0.00012967,0.00003165,
 0.00002256,0.00000325,-0.00007683,0.00008804,0.00007054,0.00000903,0.0
 0000998,0.00001169,-0.00002170,-0.00000103,0.00000960,0.00001423,-0.00
 001109,-0.00001557,-0.00011756,-0.00000304,-0.00018551,0.00018412,-0.0
 0020151,-0.00029578,-0.00203614,-0.00039229,0.00036628,0.00028746,0.00
 003781,-0.00043427,-0.00008459,0.00119536,0.00056725,0.00363346,0.0852
 5350,-0.08007182,-0.00000433,0.00000704,0.00000355,-0.00000300,-0.0000
 0064,-0.00000094,0.00000162,-0.00000114,-0.00000128,0.00000158,0.00000
 267,0.00000112,0.00000284,0.00000036,0.00000005,0.00000435,-0.00002753
 ,0.00002158,-0.00000352,0.00001585,0.00001495,-0.00000443,-0.00004319,
 0.00007900,-0.00025625,-0.00019990,-0.00043959,-0.00730715,-0.08386792
 ,0.08004419,-0.00000586,-0.00000443,0.00000628,0.00000376,-0.00001158,
 -0.00000495,-0.00445734,0.00419181,0.03179808,-0.00001233,-0.00001903,
 0.00001681,0.00001521,0.00003025,-0.00000225,0.00000071,0.00000820,-0.
 00001615,0.00002002,-0.00009309,0.00005936,0.00019802,-0.00083113,-0.0
 0060972,0.00000423,0.00001555,-0.00001640,-0.00000771,0.00001856,0.000
 00349,0.00000264,-0.00000614,0.00001332,-0.00000324,-0.00000849,0.0000
 0923,0.00000231,0.00000508,-0.00001225,0.00088717,0.00077000,0.0001542
 0,-0.00117355,0.00047761,-0.00023134,0.00582002,0.00066937,0.00190151,
 -0.00160107,0.00064217,-0.00000659,0.00076023,-0.00078347,-0.00072087,
 -0.05776783,0.00213179,-0.04691416,0.00000386,-0.00000173,0.00000477,-
 0.00000068,0.00000051,-0.00000129,0.00000026,-0.00000014,-0.00000026,0
 .00000048,0.00000037,0.00000068,0.00000064,-0.00000004,0.00000018,0.00
 000617,-0.00003450,0.00005555,-0.00000652,-0.00002915,0.00005402,0.000
 07979,-0.00014555,0.00002240,-0.00133683,-0.00125230,0.00102508,0.0007
 7608,-0.00185593,0.00162074,0.05966087,0.00012979,-0.00009444,-0.00008
 910,0.00004374,-0.00011502,-0.00008831,0.00469611,-0.00225829,-0.02619
 181,-0.00015311,-0.00003094,-0.00002061,0.00014836,0.00010443,0.000080
 02,-0.00000348,-0.00004537,-0.00003117,-0.00016415,-0.00006120,-0.0000
 4087,0.00028720,0.00015563,0.00001177,0.00006048,0.00002328,0.00002235
 ,-0.00011798,0.00013769,0.00011328,0.00001477,0.00002402,0.00001419,-0
 .00004041,0.00000886,0.00000353,0.00002689,-0.00002677,-0.00001770,-0.
 00011289,-0.00015013,0.00010146,-0.00001487,-0.00017682,-0.00010913,-0
 .00299908,-0.00023550,-0.00007785,0.00049372,-0.00036347,0.00008005,0.
 00024573,0.00072708,0.00090563,0.00229744,-0.05042768,0.01789644,0.000
 00185,0.00000989,0.00000974,-0.00000439,-0.00000029,-0.00000041,0.0000
 0234,-0.00000209,-0.00000185,0.00000342,0.00000388,0.00000305,0.000004
 49,0.00000079,-0.00000015,0.00001064,0.00001491,-0.00003260,0.00001553
 ,0.00002033,0.00002610,-0.00004057,0.00009173,-0.00006039,-0.00042422,
 -0.00053373,0.00019523,0.00447585,-0.00005576,0.02936694,-0.00674247,0
 .05192266,0.00014405,-0.00012913,-0.00010245,0.00005424,-0.00014153,-0
 .00010419,0.01247597,-0.00855674,-0.01721283,-0.00023599,-0.00003330,-
 0.00002584,0.00023110,0.00013903,0.00010013,-0.00001303,-0.00006533,-0
 .00004550,-0.00031056,-0.00006089,0.00000965,0.00040609,0.00027465,0.0
 0007027,0.00009169,0.00003163,0.00002285,-0.00013300,0.00016622,0.0001
 2642,0.00002011,0.00003347,0.00002497,-0.00005853,0.00000900,0.0000127
 6,0.00003951,-0.00003535,-0.00002797,-0.00042270,-0.00015896,0.0000735
 7,-0.00029850,0.00037397,0.00021146,-0.00538593,-0.00137940,-0.0001758
 7,0.00118557,-0.00015010,-0.00015859,0.00072778,-0.00030842,-0.0002018
 4,-0.04196455,0.01568194,-0.30002650,0.00002028,0.00001754,0.00000936,
 -0.00000454,0.00000373,-0.00000084,0.00000210,-0.00000217,-0.00000301,
 0.00000579,0.00000643,0.00000286,0.00000519,0.00000141,-0.00000064,0.0
 0003735,0.00001791,-0.00001824,0.00007269,0.00001633,0.00002720,-0.000
 11538,0.00015360,0.00000599,-0.00012665,0.00048192,0.00043406,-0.00335
 972,0.00058733,-0.00865002,0.03839697,-0.00853411,0.33063741,-0.000174
 70,0.00011160,0.00009996,-0.00005442,0.00013588,0.00010742,-0.03141802
 ,-0.00443485,-0.00052542,0.00017528,0.00004305,0.00000767,-0.00014647,
 -0.00011486,-0.00006892,0.00000042,0.00004645,0.00003896,0.00019685,0.
 00004745,0.00002021,-0.00014591,-0.00007178,-0.00004743,-0.00007014,-0
 .00003174,-0.00001586,0.00015529,-0.00016607,-0.00013961,-0.00001637,-
 0.00002701,-0.00002046,0.00004666,-0.00000510,-0.00000867,-0.00003056,
 0.00002661,0.00002418,-0.00000371,0.00032878,0.00023743,0.00008118,-0.
 00011273,-0.00007196,0.00089074,0.00297026,0.00221037,-0.00111721,-0.0
 0044594,-0.00020717,0.00011541,0.00024506,0.00019759,-0.25979885,-0.10
 295860,-0.05897967,-0.00000765,-0.00001480,-0.00000986,0.00000497,0.00
 000129,0.00000044,-0.00000241,0.00000243,0.00000211,-0.00000438,-0.000
 00488,-0.00000333,-0.00000556,-0.00000088,-0.00000016,-0.00007709,-0.0
 0002806,-0.00001746,-0.00004718,-0.00002465,-0.00001003,0.00000682,0.0
 0003519,0.00002659,0.00017939,0.00001044,-0.00004777,0.00143697,-0.000
 74970,-0.00040607,-0.00186952,-0.00214070,-0.00148739,0.29170016,-0.00
 002868,0.00001526,0.00001530,-0.00001329,0.00001987,0.00001760,0.02626
 683,0.00697843,0.00278501,0.00002600,-0.00002778,0.00005359,-0.0000207
 9,-0.00000216,-0.00004070,-0.00000482,0.00002074,-0.00001690,-0.000012
 95,0.00004304,0.00001724,-0.00011156,0.00007907,0.00012256,-0.00001140
 ,0.00000093,-0.00001352,0.00003599,-0.00002515,-0.00002119,-0.00000053
 ,-0.00000946,0.00000572,0.00000634,-0.00000284,0.00000246,-0.00000518,
 0.00000947,-0.00000354,-0.00011035,-0.00031647,-0.00013358,0.00009029,
 0.00039438,0.00011666,0.00201718,-0.00177144,-0.00192288,0.00087173,0.
 00047161,0.00002690,-0.00015572,-0.00072623,-0.00072765,-0.11349447,-0
 .10059932,-0.02850893,0.00000610,0.00000111,-0.00000503,0.00000177,0.0
 0000111,0.00000143,-0.00000065,0.00000084,0.00000021,-0.00000057,-0.00
 000121,-0.00000062,-0.00000145,-0.00000011,0.00000003,0.00006311,0.000
 00883,0.00002775,0.00003235,0.00001208,-0.00003064,-0.00001403,-0.0000
 1029,-0.00001199,-0.00045534,0.00028378,0.00059046,-0.02516169,-0.0099
 6045,-0.00820728,0.00285789,0.00133231,0.00155933,0.10732787,0.1037800
 5,-0.00000618,0.00000273,0.00000105,-0.00000534,0.00000424,0.00000185,
 0.02266184,0.00552755,0.00233509,-0.00000518,0.00005201,-0.00006187,0.
 00000225,-0.00003223,0.00002955,0.00000026,-0.00002150,0.00002741,-0.0
 0002542,0.00001183,0.00003292,-0.00007743,0.00011890,0.00002671,-0.000
 00053,-0.00001169,0.00001136,0.00001317,-0.00000308,-0.00000491,-0.000
 00046,0.00000809,-0.00001082,0.,0.00000348,-0.00000421,0.00000015,-0.0
 0000637,0.00000992,-0.00009420,-0.00017274,-0.00024861,0.00008126,0.00
 013485,0.00032367,0.00149262,-0.00200858,-0.00111316,0.00078780,0.0001
 4492,0.00037147,-0.00010473,-0.00076324,-0.00031178,-0.06693762,-0.029
 45010,-0.06570142,0.00000592,-0.00000315,0.00000412,0.00000081,0.00000
 146,0.00000006,-0.00000022,-0.00000007,0.00000061,-0.00000006,-0.00000
 024,-0.00000049,-0.00000059,-0.00000002,0.00000006,0.00005139,0.000035
 90,-0.00001286,0.00003302,-0.00002552,0.00002655,-0.00001055,-0.000016
 42,-0.00000414,-0.00039945,0.00054862,0.00000633,0.01004960,0.00515186
 ,0.00297241,-0.02660641,-0.01353370,-0.00501462,0.05909429,0.03430220,
 0.06630775\\-0.00000999,-0.00001080,-0.00000248,-0.00000658,0.00000534
 ,0.00000776,0.00000069,0.00000618,0.00000448,0.00000369,-0.00001115,-0
 .00002209,0.00000770,-0.00000484,0.00001693,-0.00001274,0.00000217,0.0
 0000001,-0.00000040,0.00001201,-0.00000343,0.00000006,0.00000485,0.000
 00106,0.00000962,0.00000635,0.00000597,0.00000685,-0.00000238,-0.00001
 094,0.00001002,0.00000259,0.00000354,-0.00001036,0.00000284,0.00000228
 ,-0.00000030,-0.00001352,-0.00000861,-0.00001173,-0.00000793,-0.000002
 60,0.00000523,-0.00000197,0.00000028,-0.00000709,0.00000463,0.00000134
 ,0.00001007,0.00000229,0.00000087,-0.00000261,-0.00000090,-0.00000315,
 0.00000729,0.00000077,0.00000075,-0.00000083,-0.00000260,0.00000063,-0
 .00000073,-0.00000396,-0.00000122,-0.00000198,-0.00000293,-0.00000289,
 0.00000440,-0.00000421,-0.00000245,0.00000024,-0.00000173,-0.00000242,
 0.00000020,0.00000274,0.00000257,0.00000026,0.00000230,0.00000066,-0.0
 0000427,0.00000204,0.00000222,0.00000270,0.00000198,0.00000410,0.00000
 074,0.00000338,0.00000195,-0.00000013,0.00000279,0.00000279,0.,0.00000
 371,0.00000213\\\@
 The archive entry for this job was punched.


 Mondays are the potholes in the road of life.
                                -- Tom Wilson
 Job cpu time:       0 days  7 hours 45 minutes 45.8 seconds.
 Elapsed time:       0 days  0 hours 18 minutes 13.4 seconds.
 File lengths (MBytes):  RWF=    685 Int=      0 D2E=      0 Chk=     22 Scr=      1
 Normal termination of Gaussian 16 at Wed Dec  6 23:32:26 2023.
