 Entering Gaussian System, Link 0=g16
 Input=/home/exlonk/in_progress/3371.inp
 Output=/home/exlonk/in_progress/3371.log
 Initial command:
 /opt/gaussian/g16-c01/g16/l1.exe "/lustre/tmp/slurm/2183043/Gau-1263093.inp" -scrdir="/lustre/tmp/slurm/2183043/"
 Default CPUs for threads: 17,21-45
 Default is to use a total of  26 processors:
                               26 via shared-memory
                                1 via Linda
 Entering Link 1 = /opt/gaussian/g16-c01/g16/l1.exe PID=   1263094.
  
 Copyright (c) 1988-2019, Gaussian, Inc.  All Rights Reserved.
  
 This is part of the Gaussian(R) 16 program.  It is based on
 the Gaussian(R) 09 system (copyright 2009, Gaussian, Inc.),
 the Gaussian(R) 03 system (copyright 2003, Gaussian, Inc.),
 the Gaussian(R) 98 system (copyright 1998, Gaussian, Inc.),
 the Gaussian(R) 94 system (copyright 1995, Gaussian, Inc.),
 the Gaussian 92(TM) system (copyright 1992, Gaussian, Inc.),
 the Gaussian 90(TM) system (copyright 1990, Gaussian, Inc.),
 the Gaussian 88(TM) system (copyright 1988, Gaussian, Inc.),
 the Gaussian 86(TM) system (copyright 1986, Carnegie Mellon
 University), and the Gaussian 82(TM) system (copyright 1983,
 Carnegie Mellon University). Gaussian is a federally registered
 trademark of Gaussian, Inc.
  
 This software contains proprietary and confidential information,
 including trade secrets, belonging to Gaussian, Inc.
  
 This software is provided under written license and may be
 used, copied, transmitted, or stored only in accord with that
 written license.
  
 The following legend is applicable only to US Government
 contracts under FAR:
  
                    RESTRICTED RIGHTS LEGEND
  
 Use, reproduction and disclosure by the US Government is
 subject to restrictions as set forth in subparagraphs (a)
 and (c) of the Commercial Computer Software - Restricted
 Rights clause in FAR 52.227-19.
  
 Gaussian, Inc.
 340 Quinnipiac St., Bldg. 40, Wallingford CT 06492
  
  
 ---------------------------------------------------------------
 Warning -- This program may not be used in any manner that
 competes with the business of Gaussian, Inc. or will provide
 assistance to any competitor of Gaussian, Inc.  The licensee
 of this program is prohibited from giving any competitor of
 Gaussian, Inc. access to this program.  By using this program,
 the user acknowledges that Gaussian, Inc. is engaged in the
 business of creating and licensing software in the field of
 computational chemistry and represents and warrants to the
 licensee that it is not a competitor of Gaussian, Inc. and that
 it will not use this program in any manner prohibited above.
 ---------------------------------------------------------------
  

 Cite this work as:
 Gaussian 16, Revision C.01,
 M. J. Frisch, G. W. Trucks, H. B. Schlegel, G. E. Scuseria, 
 M. A. Robb, J. R. Cheeseman, G. Scalmani, V. Barone, 
 G. A. Petersson, H. Nakatsuji, X. Li, M. Caricato, A. V. Marenich, 
 J. Bloino, B. G. Janesko, R. Gomperts, B. Mennucci, H. P. Hratchian, 
 J. V. Ortiz, A. F. Izmaylov, J. L. Sonnenberg, D. Williams-Young, 
 F. Ding, F. Lipparini, F. Egidi, J. Goings, B. Peng, A. Petrone, 
 T. Henderson, D. Ranasinghe, V. G. Zakrzewski, J. Gao, N. Rega, 
 G. Zheng, W. Liang, M. Hada, M. Ehara, K. Toyota, R. Fukuda, 
 J. Hasegawa, M. Ishida, T. Nakajima, Y. Honda, O. Kitao, H. Nakai, 
 T. Vreven, K. Throssell, J. A. Montgomery, Jr., J. E. Peralta, 
 F. Ogliaro, M. J. Bearpark, J. J. Heyd, E. N. Brothers, K. N. Kudin, 
 V. N. Staroverov, T. A. Keith, R. Kobayashi, J. Normand, 
 K. Raghavachari, A. P. Rendell, J. C. Burant, S. S. Iyengar, 
 J. Tomasi, M. Cossi, J. M. Millam, M. Klene, C. Adamo, R. Cammi, 
 J. W. Ochterski, R. L. Martin, K. Morokuma, O. Farkas, 
 J. B. Foresman, and D. J. Fox, Gaussian, Inc., Wallingford CT, 2019.
 
 ******************************************
 Gaussian 16:  EM64L-G16RevC.01  3-Jul-2019
                 5-Dec-2023 
 ******************************************
 %nproc=26
 Will use up to   26 processors via shared memory.
 %mem=16GB
 %chk=/home/exlonk/in_progress/3371.chk
 ------------------------------
 #p MN15/6-311++G(d,p) opt freq
 ------------------------------
 1/18=20,19=15,26=3,38=1/1,3;
 2/9=110,12=2,17=6,18=5,40=1/2;
 3/5=4,6=6,7=1111,11=2,25=1,30=1,71=1,74=-73/1,2,3;
 4//1;
 5/5=2,38=5/2;
 6/7=2,8=2,9=2,10=2,28=1/1;
 7//1,2,3,16;
 1/18=20,19=15,26=3/3(2);
 2/9=110/2;
 99//99;
 2/9=110/2;
 3/5=4,6=6,7=1111,11=2,25=1,30=1,71=1,74=-73/1,2,3;
 4/5=5,16=3,69=1/1;
 5/5=2,38=5/2;
 7//1,2,3,16;
 1/18=20,19=15,26=3/3(-5);
 2/9=110/2;
 6/7=2,8=2,9=2,10=2,19=2,28=1/1;
 99/9=1/99;
 Leave Link    1 at Tue Dec  5 20:02:27 2023, MaxMem=  2147483648 cpu:               9.3 elap:               0.4
 (Enter /opt/gaussian/g16-c01/g16/l101.exe)
 ---------------
 name file: 3371
 ---------------
 Symbolic Z-matrix:
 Charge =  0 Multiplicity = 1
 O                    -0.1648   -2.6082   -0.0002 
 O                    -3.0213   -1.7272    0.0009 
 C                    -0.4077    0.884    -0.0004 
 C                     1.025     0.681    -0.0004 
 C                    -1.0504   -0.3662   -0.0004 
 C                     1.2952   -0.6984   -0.0005 
 C                    -0.0016   -1.4079   -0.0005 
 C                    -2.4227   -0.5126    0.0001 
 C                    -1.1651    2.0419   -0.0004 
 C                     2.0742    1.5829    0.0003 
 C                     2.573    -1.2203    0. 
 C                    -3.1818    0.6575    0.0004 
 C                    -2.5604    1.9212    0. 
 C                     3.3812    1.0795    0.0007 
 C                     3.6272   -0.3071    0.0004 
 H                    -0.704     3.0238   -0.0005 
 H                     1.904     2.6543    0.0006 
 H                     2.7575   -2.2878    0. 
 H                    -4.2683    0.609     0.0009 
 H                    -3.1755    2.8176    0.0002 
 H                     4.2211    1.7696    0.0012 
 H                     4.6526   -0.6675    0.0008 
 H                    -3.986    -1.6032    0.0014 
 
 ITRead=  0  0  0  0  0  0  0  0  0  0  0  0  0  0  0  0  0  0  0  0
 ITRead=  0  0  0
 MicOpt= -1 -1 -1 -1 -1 -1 -1 -1 -1 -1 -1 -1 -1 -1 -1 -1 -1 -1 -1 -1
 MicOpt= -1 -1 -1
 NAtoms=     23 NQM=       23 NQMF=       0 NMMI=      0 NMMIF=      0
                NMic=       0 NMicF=      0.
                    Isotopes and Nuclear Properties:
 (Nuclear quadrupole moments (NQMom) in fm**2, nuclear magnetic moments (NMagM)
  in nuclear magnetons)

  Atom         1           2           3           4           5           6           7           8           9          10
 IAtWgt=          16          16          12          12          12          12          12          12          12          12
 AtmWgt=  15.9949146  15.9949146  12.0000000  12.0000000  12.0000000  12.0000000  12.0000000  12.0000000  12.0000000  12.0000000
 NucSpn=           0           0           0           0           0           0           0           0           0           0
 AtZEff=  -0.0000000  -0.0000000  -0.0000000  -0.0000000  -0.0000000  -0.0000000  -0.0000000  -0.0000000  -0.0000000  -0.0000000
 NQMom=    0.0000000   0.0000000   0.0000000   0.0000000   0.0000000   0.0000000   0.0000000   0.0000000   0.0000000   0.0000000
 NMagM=    0.0000000   0.0000000   0.0000000   0.0000000   0.0000000   0.0000000   0.0000000   0.0000000   0.0000000   0.0000000
 AtZNuc=   8.0000000   8.0000000   6.0000000   6.0000000   6.0000000   6.0000000   6.0000000   6.0000000   6.0000000   6.0000000

  Atom        11          12          13          14          15          16          17          18          19          20
 IAtWgt=          12          12          12          12          12           1           1           1           1           1
 AtmWgt=  12.0000000  12.0000000  12.0000000  12.0000000  12.0000000   1.0078250   1.0078250   1.0078250   1.0078250   1.0078250
 NucSpn=           0           0           0           0           0           1           1           1           1           1
 AtZEff=  -0.0000000  -0.0000000  -0.0000000  -0.0000000  -0.0000000  -0.0000000  -0.0000000  -0.0000000  -0.0000000  -0.0000000
 NQMom=    0.0000000   0.0000000   0.0000000   0.0000000   0.0000000   0.0000000   0.0000000   0.0000000   0.0000000   0.0000000
 NMagM=    0.0000000   0.0000000   0.0000000   0.0000000   0.0000000   2.7928460   2.7928460   2.7928460   2.7928460   2.7928460
 AtZNuc=   6.0000000   6.0000000   6.0000000   6.0000000   6.0000000   1.0000000   1.0000000   1.0000000   1.0000000   1.0000000

  Atom        21          22          23
 IAtWgt=           1           1           1
 AtmWgt=   1.0078250   1.0078250   1.0078250
 NucSpn=           1           1           1
 AtZEff=  -0.0000000  -0.0000000  -0.0000000
 NQMom=    0.0000000   0.0000000   0.0000000
 NMagM=    2.7928460   2.7928460   2.7928460
 AtZNuc=   1.0000000   1.0000000   1.0000000
 Leave Link  101 at Tue Dec  5 20:02:28 2023, MaxMem=  2147483648 cpu:               7.4 elap:               0.4
 (Enter /opt/gaussian/g16-c01/g16/l103.exe)

 GradGradGradGradGradGradGradGradGradGradGradGradGradGradGradGradGradGrad
 Berny optimization.
 Initialization pass.
                           ----------------------------
                           !    Initial Parameters    !
                           ! (Angstroms and Degrees)  !
 --------------------------                            --------------------------
 ! Name  Definition              Value          Derivative Info.                !
 --------------------------------------------------------------------------------
 ! R1    R(1,7)                  1.2113         estimate D2E/DX2                !
 ! R2    R(2,8)                  1.3541         estimate D2E/DX2                !
 ! R3    R(2,23)                 0.9726         estimate D2E/DX2                !
 ! R4    R(3,4)                  1.447          estimate D2E/DX2                !
 ! R5    R(3,5)                  1.4057         estimate D2E/DX2                !
 ! R6    R(3,9)                  1.3836         estimate D2E/DX2                !
 ! R7    R(4,6)                  1.4056         estimate D2E/DX2                !
 ! R8    R(4,10)                 1.3836         estimate D2E/DX2                !
 ! R9    R(5,7)                  1.4782         estimate D2E/DX2                !
 ! R10   R(5,8)                  1.3801         estimate D2E/DX2                !
 ! R11   R(6,7)                  1.4782         estimate D2E/DX2                !
 ! R12   R(6,11)                 1.3803         estimate D2E/DX2                !
 ! R13   R(8,12)                 1.3948         estimate D2E/DX2                !
 ! R14   R(9,13)                 1.4005         estimate D2E/DX2                !
 ! R15   R(9,16)                 1.0848         estimate D2E/DX2                !
 ! R16   R(10,14)                1.4006         estimate D2E/DX2                !
 ! R17   R(10,17)                1.0848         estimate D2E/DX2                !
 ! R18   R(11,15)                1.3947         estimate D2E/DX2                !
 ! R19   R(11,18)                1.0833         estimate D2E/DX2                !
 ! R20   R(12,13)                1.4082         estimate D2E/DX2                !
 ! R21   R(12,19)                1.0876         estimate D2E/DX2                !
 ! R22   R(13,20)                1.0871         estimate D2E/DX2                !
 ! R23   R(14,15)                1.4083         estimate D2E/DX2                !
 ! R24   R(14,21)                1.087          estimate D2E/DX2                !
 ! R25   R(15,22)                1.0869         estimate D2E/DX2                !
 ! A1    A(8,2,23)             108.9113         estimate D2E/DX2                !
 ! A2    A(4,3,5)              109.1421         estimate D2E/DX2                !
 ! A3    A(4,3,9)              131.2539         estimate D2E/DX2                !
 ! A4    A(5,3,9)              119.604          estimate D2E/DX2                !
 ! A5    A(3,4,6)              109.1475         estimate D2E/DX2                !
 ! A6    A(3,4,10)             131.2528         estimate D2E/DX2                !
 ! A7    A(6,4,10)             119.5997         estimate D2E/DX2                !
 ! A8    A(3,5,7)              107.5987         estimate D2E/DX2                !
 ! A9    A(3,5,8)              123.2961         estimate D2E/DX2                !
 ! A10   A(7,5,8)              129.1052         estimate D2E/DX2                !
 ! A11   A(4,6,7)              107.6009         estimate D2E/DX2                !
 ! A12   A(4,6,11)             123.2998         estimate D2E/DX2                !
 ! A13   A(7,6,11)             129.0993         estimate D2E/DX2                !
 ! A14   A(1,7,5)              127.0626         estimate D2E/DX2                !
 ! A15   A(1,7,6)              126.4266         estimate D2E/DX2                !
 ! A16   A(5,7,6)              106.5108         estimate D2E/DX2                !
 ! A17   A(2,8,5)              122.3252         estimate D2E/DX2                !
 ! A18   A(2,8,12)             120.7908         estimate D2E/DX2                !
 ! A19   A(5,8,12)             116.884          estimate D2E/DX2                !
 ! A20   A(3,9,13)             118.2453         estimate D2E/DX2                !
 ! A21   A(3,9,16)             121.656          estimate D2E/DX2                !
 ! A22   A(13,9,16)            120.0988         estimate D2E/DX2                !
 ! A23   A(4,10,14)            118.2529         estimate D2E/DX2                !
 ! A24   A(4,10,17)            121.6562         estimate D2E/DX2                !
 ! A25   A(14,10,17)           120.091          estimate D2E/DX2                !
 ! A26   A(6,11,15)            116.8824         estimate D2E/DX2                !
 ! A27   A(6,11,18)            122.0227         estimate D2E/DX2                !
 ! A28   A(15,11,18)           121.095          estimate D2E/DX2                !
 ! A29   A(8,12,13)            120.8418         estimate D2E/DX2                !
 ! A30   A(8,12,19)            120.4175         estimate D2E/DX2                !
 ! A31   A(13,12,19)           118.7407         estimate D2E/DX2                !
 ! A32   A(9,13,12)            121.1288         estimate D2E/DX2                !
 ! A33   A(9,13,20)            119.5134         estimate D2E/DX2                !
 ! A34   A(12,13,20)           119.3577         estimate D2E/DX2                !
 ! A35   A(10,14,15)           121.1248         estimate D2E/DX2                !
 ! A36   A(10,14,21)           119.5274         estimate D2E/DX2                !
 ! A37   A(15,14,21)           119.3478         estimate D2E/DX2                !
 ! A38   A(11,15,14)           120.8404         estimate D2E/DX2                !
 ! A39   A(11,15,22)           119.7341         estimate D2E/DX2                !
 ! A40   A(14,15,22)           119.4255         estimate D2E/DX2                !
 ! D1    D(23,2,8,5)           179.9836         estimate D2E/DX2                !
 ! D2    D(23,2,8,12)            0.015          estimate D2E/DX2                !
 ! D3    D(5,3,4,6)              0.0043         estimate D2E/DX2                !
 ! D4    D(5,3,4,10)          -179.9614         estimate D2E/DX2                !
 ! D5    D(9,3,4,6)           -179.9957         estimate D2E/DX2                !
 ! D6    D(9,3,4,10)             0.0386         estimate D2E/DX2                !
 ! D7    D(4,3,5,7)             -0.0041         estimate D2E/DX2                !
 ! D8    D(4,3,5,8)            179.9752         estimate D2E/DX2                !
 ! D9    D(9,3,5,7)            179.9959         estimate D2E/DX2                !
 ! D10   D(9,3,5,8)             -0.0248         estimate D2E/DX2                !
 ! D11   D(4,3,9,13)          -179.9814         estimate D2E/DX2                !
 ! D12   D(4,3,9,16)             0.0062         estimate D2E/DX2                !
 ! D13   D(5,3,9,13)             0.0186         estimate D2E/DX2                !
 ! D14   D(5,3,9,16)          -179.9938         estimate D2E/DX2                !
 ! D15   D(3,4,6,7)             -0.0027         estimate D2E/DX2                !
 ! D16   D(3,4,6,11)          -179.9739         estimate D2E/DX2                !
 ! D17   D(10,4,6,7)           179.9677         estimate D2E/DX2                !
 ! D18   D(10,4,6,11)           -0.0035         estimate D2E/DX2                !
 ! D19   D(3,4,10,14)          179.9716         estimate D2E/DX2                !
 ! D20   D(3,4,10,17)           -0.0247         estimate D2E/DX2                !
 ! D21   D(6,4,10,14)            0.0088         estimate D2E/DX2                !
 ! D22   D(6,4,10,17)         -179.9875         estimate D2E/DX2                !
 ! D23   D(3,5,7,1)            179.9805         estimate D2E/DX2                !
 ! D24   D(3,5,7,6)              0.0024         estimate D2E/DX2                !
 ! D25   D(8,5,7,1)              0.0029         estimate D2E/DX2                !
 ! D26   D(8,5,7,6)           -179.9753         estimate D2E/DX2                !
 ! D27   D(3,5,8,2)           -179.9594         estimate D2E/DX2                !
 ! D28   D(3,5,8,12)             0.0103         estimate D2E/DX2                !
 ! D29   D(7,5,8,2)              0.015          estimate D2E/DX2                !
 ! D30   D(7,5,8,12)           179.9848         estimate D2E/DX2                !
 ! D31   D(4,6,7,1)           -179.9781         estimate D2E/DX2                !
 ! D32   D(4,6,7,5)              0.0002         estimate D2E/DX2                !
 ! D33   D(11,6,7,1)            -0.0091         estimate D2E/DX2                !
 ! D34   D(11,6,7,5)           179.9692         estimate D2E/DX2                !
 ! D35   D(4,6,11,15)           -0.0106         estimate D2E/DX2                !
 ! D36   D(4,6,11,18)          179.9945         estimate D2E/DX2                !
 ! D37   D(7,6,11,15)         -179.9752         estimate D2E/DX2                !
 ! D38   D(7,6,11,18)            0.0298         estimate D2E/DX2                !
 ! D39   D(2,8,12,13)          179.9796         estimate D2E/DX2                !
 ! D40   D(2,8,12,19)           -0.0234         estimate D2E/DX2                !
 ! D41   D(5,8,12,13)            0.0093         estimate D2E/DX2                !
 ! D42   D(5,8,12,19)         -179.9937         estimate D2E/DX2                !
 ! D43   D(3,9,13,12)            0.0003         estimate D2E/DX2                !
 ! D44   D(3,9,13,20)          179.9884         estimate D2E/DX2                !
 ! D45   D(16,9,13,12)        -179.9875         estimate D2E/DX2                !
 ! D46   D(16,9,13,20)           0.0005         estimate D2E/DX2                !
 ! D47   D(4,10,14,15)           0.0            estimate D2E/DX2                !
 ! D48   D(4,10,14,21)         179.9969         estimate D2E/DX2                !
 ! D49   D(17,10,14,15)        179.9963         estimate D2E/DX2                !
 ! D50   D(17,10,14,21)         -0.0068         estimate D2E/DX2                !
 ! D51   D(6,11,15,14)           0.0193         estimate D2E/DX2                !
 ! D52   D(6,11,15,22)        -180.0            estimate D2E/DX2                !
 ! D53   D(18,11,15,14)       -179.9857         estimate D2E/DX2                !
 ! D54   D(18,11,15,22)         -0.005          estimate D2E/DX2                !
 ! D55   D(8,12,13,9)           -0.0148         estimate D2E/DX2                !
 ! D56   D(8,12,13,20)         179.9972         estimate D2E/DX2                !
 ! D57   D(19,12,13,9)         179.9882         estimate D2E/DX2                !
 ! D58   D(19,12,13,20)          0.0001         estimate D2E/DX2                !
 ! D59   D(10,14,15,11)         -0.0146         estimate D2E/DX2                !
 ! D60   D(10,14,15,22)       -179.9954         estimate D2E/DX2                !
 ! D61   D(21,14,15,11)        179.9885         estimate D2E/DX2                !
 ! D62   D(21,14,15,22)          0.0077         estimate D2E/DX2                !
 --------------------------------------------------------------------------------
 Trust Radius=3.00D-01 FncErr=1.00D-07 GrdErr=1.00D-06 EigMax=2.50D+02 EigMin=1.00D-04
 Number of steps in this run=    137 maximum allowed number of steps=    138.
 GradGradGradGradGradGradGradGradGradGradGradGradGradGradGradGradGradGrad

 Leave Link  103 at Tue Dec  5 20:02:28 2023, MaxMem=  2147483648 cpu:               2.5 elap:               0.2
 (Enter /opt/gaussian/g16-c01/g16/l202.exe)
                          Input orientation:                          
 ---------------------------------------------------------------------
 Center     Atomic      Atomic             Coordinates (Angstroms)
 Number     Number       Type             X           Y           Z
 ---------------------------------------------------------------------
      1          8           0       -0.164800   -2.608200   -0.000200
      2          8           0       -3.021300   -1.727200    0.000900
      3          6           0       -0.407700    0.884000   -0.000400
      4          6           0        1.025000    0.681000   -0.000400
      5          6           0       -1.050400   -0.366200   -0.000400
      6          6           0        1.295200   -0.698400   -0.000500
      7          6           0       -0.001600   -1.407900   -0.000500
      8          6           0       -2.422700   -0.512600    0.000100
      9          6           0       -1.165100    2.041900   -0.000400
     10          6           0        2.074200    1.582900    0.000300
     11          6           0        2.573000   -1.220300    0.000000
     12          6           0       -3.181800    0.657500    0.000400
     13          6           0       -2.560400    1.921200    0.000000
     14          6           0        3.381200    1.079500    0.000700
     15          6           0        3.627200   -0.307100    0.000400
     16          1           0       -0.704000    3.023800   -0.000500
     17          1           0        1.904000    2.654300    0.000600
     18          1           0        2.757500   -2.287800    0.000000
     19          1           0       -4.268300    0.609000    0.000900
     20          1           0       -3.175500    2.817600    0.000200
     21          1           0        4.221100    1.769600    0.001200
     22          1           0        4.652600   -0.667500    0.000800
     23          1           0       -3.986000   -1.603200    0.001400
 ---------------------------------------------------------------------
                    Distance matrix (angstroms):
                    1          2          3          4          5
     1  O    0.000000
     2  O    2.989273   0.000000
     3  C    3.500637   3.694492   0.000000
     4  C    3.497779   4.708712   1.447010   0.000000
     5  C    2.410571   2.395155   1.405725   2.324632   0.000000
     6  C    2.403942   4.437410   2.324620   1.405615   2.369007
     7  C    1.211344   3.036535   2.327600   2.327533   1.478215
     8  C    3.080528   1.354096   2.451676   3.648468   1.380087
     9  C    4.756472   4.201380   1.383614   2.578485   2.410830
    10  C    4.751678   6.076256   2.578428   1.383562   3.682678
    11  C    3.069498   5.617218   3.648651   2.451784   3.722703
    12  C    4.446019   2.390095   2.783331   4.206866   2.364493
    13  C    5.123901   3.677397   2.389540   3.793836   2.740857
    14  C    5.115980   6.990677   3.793941   2.389661   4.661451
    15  C    4.435575   6.798473   4.207034   2.783485   4.677973
    16  H    5.657752   5.286008   2.160217   2.911727   3.407652
    17  H    5.654542   6.592126   2.911687   2.160221   4.225151
    18  H    2.939812   5.805928   4.480938   3.437343   4.265284
    19  H    5.214316   2.648177   3.870382   5.293790   3.362424
    20  H    6.205129   4.547415   3.376318   4.712670   3.827876
    21  H    6.196875   8.042386   4.712757   3.376405   5.687737
    22  H    5.193617   7.746722   5.292805   3.870134   5.710954
    23  H    3.951151   0.972637   4.357797   5.507059   3.185580
                    6          7          8          9         10
     6  C    0.000000
     7  C    1.478202   0.000000
     8  C    3.722540   2.581334   0.000000
     9  C    3.682706   3.640721   2.847284   0.000000
    10  C    2.410637   3.640581   4.961172   3.271658   0.000000
    11  C    1.380273   2.581426   5.045578   4.961385   2.847232
    12  C    4.677819   3.792038   1.394764   2.446149   5.336844
    13  C    4.661326   4.198853   2.437692   1.400511   4.646931
    14  C    2.740862   4.198868   6.018309   4.647048   1.400593
    15  C    2.364602   3.792091   6.053389   5.337035   2.446203
    16  H    4.225112   4.487018   3.931928   1.084777   3.129631
    17  H    3.407526   4.486957   5.361864   3.129602   1.084835
    18  H    2.159749   2.896007   5.475930   5.842353   3.930549
    19  H    5.715053   4.719387   2.159682   3.418048   6.416836
    20  H    5.687655   5.284741   3.414226   2.154859   5.392943
    21  H    3.827782   5.284667   7.024850   5.393079   2.155003
    22  H    3.357542   4.712724   7.076995   6.417670   3.422345
    23  H    5.358147   3.989184   1.906126   4.609147   6.846697
                   11         12         13         14         15
    11  C    0.000000
    12  C    6.053417   0.000000
    13  C    6.018373   1.408217   0.000000
    14  C    2.437677   6.576553   6.000922   0.000000
    15  C    1.394730   6.876986   6.576604   1.408253   0.000000
    16  H    5.362007   3.426203   2.159154   4.524286   5.463899
    17  H    3.931932   5.463751   4.524191   2.159193   3.426267
    18  H    1.083327   6.629485   6.782016   3.424575   2.163227
    19  H    7.081647   1.087582   2.153786   7.663956   7.948469
    20  H    7.024948   2.160109   1.087144   6.783163   7.486019
    21  H    3.414050   7.485967   6.783194   1.087047   2.159954
    22  H    2.151819   7.945656   7.663468   2.160664   1.086892
    23  H    6.570167   2.399480   3.801807   7.840441   7.722739
                   16         17         18         19         20
    16  H    0.000000
    17  H    2.634045   0.000000
    18  H    6.339959   5.015258   0.000000
    19  H    4.305287   6.502349   7.599560   0.000000
    20  H    2.480087   5.082124   7.827234   2.464168   0.000000
    21  H    5.082286   2.480251   4.313307   8.568367   7.470475
    22  H    6.505295   4.311514   2.493346   9.011765   8.568843
    23  H    5.672800   7.267627   6.778161   2.230140   4.494484
                   21         22         23
    21  H    0.000000
    22  H    2.475005   0.000000
    23  H    8.873121   8.689128   0.000000
 Stoichiometry    C13H8O2
 Framework group  C1[X(C13H8O2)]
 Deg. of freedom    63
 Full point group                 C1      NOp   1
 Largest Abelian subgroup         C1      NOp   1
 Largest concise Abelian subgroup C1      NOp   1
                         Standard orientation:                         
 ---------------------------------------------------------------------
 Center     Atomic      Atomic             Coordinates (Angstroms)
 Number     Number       Type             X           Y           Z
 ---------------------------------------------------------------------
      1          8           0        0.171059    2.582062   -0.000259
      2          8           0        3.008162    1.640467    0.000841
      3          6           0        0.339580   -0.914517   -0.000459
      4          6           0       -1.088475   -0.681071   -0.000459
      5          6           0        1.008742    0.321722   -0.000459
      6          6           0       -1.329256    0.703767   -0.000559
      7          6           0       -0.017650    1.385507   -0.000559
      8          6           0        2.383847    0.438882    0.000041
      9          6           0        1.072165   -2.088274   -0.000459
     10          6           0       -2.156632   -1.560437    0.000241
     11          6           0       -2.595659    1.252744   -0.000059
     12          6           0        3.117872   -0.747108    0.000341
     13          6           0        2.469718   -1.997297   -0.000059
     14          6           0       -3.452622   -1.029334    0.000641
     15          6           0       -3.669056    0.362187    0.000341
     16          1           0        0.590272   -3.060138   -0.000559
     17          1           0       -2.009273   -2.635216    0.000541
     18          1           0       -2.757398    2.323929   -0.000059
     19          1           0        4.205158   -0.721743    0.000841
     20          1           0        3.065601   -2.906585    0.000141
     21          1           0       -4.307019   -1.701403    0.001141
     22          1           0       -4.686554    0.744329    0.000741
     23          1           0        3.970004    1.495964    0.001341
 ---------------------------------------------------------------------
 Rotational constants (GHZ):           1.2526174           0.5036530           0.3592183
 Leave Link  202 at Tue Dec  5 20:02:28 2023, MaxMem=  2147483648 cpu:               1.9 elap:               0.1
 (Enter /opt/gaussian/g16-c01/g16/l301.exe)
 Standard basis: 6-311++G(d,p) (5D, 7F)
 Ernie: Thresh=  0.10000D-02 Tol=  0.10000D-05 Strict=F.
 There are   401 symmetry adapted cartesian basis functions of A   symmetry.
 There are   386 symmetry adapted basis functions of A   symmetry.
   386 basis functions,   612 primitive gaussians,   401 cartesian basis functions
    51 alpha electrons       51 beta electrons
       nuclear repulsion energy       893.9927553423 Hartrees.
 IExCor= 7252 DFT=T Ex+Corr=MN15 ExCW=0 ScaHFX=  0.440000
 ScaDFX=  1.000000  1.000000  1.000000  1.000000 ScalE2=  1.000000  1.000000
 IRadAn=      5 IRanWt=     -1 IRanGd=            0 ICorTp=0 IEmpDi=  4
 NAtoms=   23 NActive=   23 NUniq=   23 SFac= 1.00D+00 NAtFMM=   60 NAOKFM=F Big=F
 Integral buffers will be    131072 words long.
 Raffenetti 2 integral format.
 Two-electron integral symmetry is turned on.
 Leave Link  301 at Tue Dec  5 20:02:28 2023, MaxMem=  2147483648 cpu:               1.9 elap:               0.1
 (Enter /opt/gaussian/g16-c01/g16/l302.exe)
 NPDir=0 NMtPBC=     1 NCelOv=     1 NCel=       1 NClECP=     1 NCelD=      1
         NCelK=      1 NCelE2=     1 NClLst=     1 CellRange=     0.0.
 One-electron integrals computed using PRISM.
 One-electron integral symmetry used in STVInt
 NBasis=   386 RedAO= T EigKep=  1.13D-06  NBF=   386
 NBsUse=   381 1.00D-06 EigRej=  5.08D-07 NBFU=   381
 Precomputing XC quadrature grid using
 IXCGrd= 4 IRadAn=           5 IRanWt=          -1 IRanGd=           0 AccXCQ= 0.00D+00.
 Generated NRdTot=       0 NPtTot=           0 NUsed=           0 NTot=          32
 NSgBfM=   401   401   401   401   401 MxSgAt=    23 MxSgA2=    23.
 Leave Link  302 at Tue Dec  5 20:02:33 2023, MaxMem=  2147483648 cpu:              99.7 elap:               4.2
 (Enter /opt/gaussian/g16-c01/g16/l303.exe)
 DipDrv:  MaxL=1.
 Leave Link  303 at Tue Dec  5 20:02:33 2023, MaxMem=  2147483648 cpu:              14.1 elap:               0.6
 (Enter /opt/gaussian/g16-c01/g16/l401.exe)
 ExpMin= 3.60D-02 ExpMax= 8.59D+03 ExpMxC= 1.30D+03 IAcc=3 IRadAn=         5 AccDes= 0.00D+00
 Harris functional with IExCor= 1009 and IRadAn=       5 diagonalized for initial guess.
 HarFok:  IExCor= 1009 AccDes= 0.00D+00 IRadAn=         5 IDoV= 1 UseB2=F ITyADJ=14
 ICtDFT=  3500011 ScaDFX=  1.000000  1.000000  1.000000  1.000000
 FoFCou: FMM=F IPFlag=           0 FMFlag=      100000 FMFlg1=           0
         NFxFlg=           0 DoJE=T BraDBF=F KetDBF=T FulRan=T
         wScrn=  0.000000 ICntrl=       500 IOpCl=  0 I1Cent=   200000004 NGrid=           0
         NMat0=    1 NMatS0=      1 NMatT0=    0 NMatD0=    1 NMtDS0=    0 NMtDT0=    0
 Petite list used in FoFCou.
 Harris En= -650.243812456278    
 JPrj=0 DoOrth=F DoCkMO=F.
 Leave Link  401 at Tue Dec  5 20:03:30 2023, MaxMem=  2147483648 cpu:            1361.6 elap:              54.8
 (Enter /opt/gaussian/g16-c01/g16/l502.exe)
 Integral symmetry usage will be decided dynamically.
 Closed shell SCF:
 Using DIIS extrapolation, IDIIS=  1040.
 NGot=  2147483648 LenX=  2147147336 LenY=  2146986094
 Requested convergence on RMS density matrix=1.00D-08 within 128 cycles.
 Requested convergence on MAX density matrix=1.00D-06.
 Requested convergence on             energy=1.00D-06.
 No special actions if energy rises.
 Fock matrices will be formed incrementally for  20 cycles.

 Cycle   1  Pass 1  IDiag  1:
 FoFJK:  IHMeth= 1 ICntrl=       0 DoSepK=F KAlg= 0 I1Cent=           0 FoldK=F
 IRaf= 890000000 NMat=       1 IRICut=       1 DoRegI=T DoRafI=F ISym2E= 0 IDoP0=0 IntGTp=1.
 FoFCou: FMM=F IPFlag=           0 FMFlag=      100000 FMFlg1=           0
         NFxFlg=           0 DoJE=F BraDBF=F KetDBF=F FulRan=T
         wScrn=  0.000000 ICntrl=         0 IOpCl=  0 I1Cent=           0 NGrid=           0
         NMat0=    1 NMatS0=      1 NMatT0=    0 NMatD0=    1 NMtDS0=    0 NMtDT0=    0
 Symmetry not used in FoFCou.
 E= -649.773209627280    
 DIIS: error= 3.70D-02 at cycle   1 NSaved=   1.
 NSaved= 1 IEnMin= 1 EnMin= -649.773209627280     IErMin= 1 ErrMin= 3.70D-02
 ErrMax= 3.70D-02  0.00D+00 EMaxC= 1.00D-01 BMatC= 3.47D-01 BMatP= 3.47D-01
 IDIUse=3 WtCom= 6.30D-01 WtEn= 3.70D-01
 Coeff-Com:  0.100D+01
 Coeff-En:   0.100D+01
 Coeff:      0.100D+01
 Gap=     0.198 Goal=   None    Shift=    0.000
 GapD=    0.198 DampG=1.000 DampE=0.500 DampFc=0.5000 IDamp=-1.
 Damping current iteration by 5.00D-01
 RMSDP=2.64D-02 MaxDP=1.64D+00              OVMax= 1.64D-01

 Cycle   2  Pass 1  IDiag  1:
 RMSU=  6.48D-03    CP:  8.62D-01
 E= -649.906155262814     Delta-E=       -0.132945635534 Rises=F Damp=T
 DIIS: error= 1.23D-02 at cycle   2 NSaved=   2.
 NSaved= 2 IEnMin= 2 EnMin= -649.906155262814     IErMin= 2 ErrMin= 1.23D-02
 ErrMax= 1.23D-02  0.00D+00 EMaxC= 1.00D-01 BMatC= 3.90D-02 BMatP= 3.47D-01
 IDIUse=3 WtCom= 8.77D-01 WtEn= 1.23D-01
 Coeff-Com: -0.464D-01 0.105D+01
 Coeff-En:   0.000D+00 0.100D+01
 Coeff:     -0.407D-01 0.104D+01
 Gap=     0.247 Goal=   None    Shift=    0.000
 RMSDP=1.64D-02 MaxDP=1.02D+00 DE=-1.33D-01 OVMax= 1.16D-01

 Cycle   3  Pass 1  IDiag  1:
 RMSU=  6.27D-03    CP:  6.80D-01  8.89D-01
 E= -650.026000524161     Delta-E=       -0.119845261347 Rises=F Damp=F
 DIIS: error= 1.70D-02 at cycle   3 NSaved=   3.
 NSaved= 3 IEnMin= 3 EnMin= -650.026000524161     IErMin= 2 ErrMin= 1.23D-02
 ErrMax= 1.70D-02  0.00D+00 EMaxC= 1.00D-01 BMatC= 3.22D-02 BMatP= 3.90D-02
 IDIUse=3 WtCom= 8.30D-01 WtEn= 1.70D-01
 Coeff-Com: -0.115D+00 0.547D+00 0.568D+00
 Coeff-En:   0.000D+00 0.000D+00 0.100D+01
 Coeff:     -0.956D-01 0.454D+00 0.642D+00
 Gap=     0.202 Goal=   None    Shift=    0.000
 RMSDP=3.96D-03 MaxDP=2.23D-01 DE=-1.20D-01 OVMax= 7.60D-02

 Cycle   4  Pass 1  IDiag  1:
 RMSU=  2.51D-03    CP:  6.47D-01  1.04D+00  8.52D-01
 E= -650.037864983647     Delta-E=       -0.011864459486 Rises=F Damp=F
 DIIS: error= 1.04D-02 at cycle   4 NSaved=   4.
 NSaved= 4 IEnMin= 4 EnMin= -650.037864983647     IErMin= 4 ErrMin= 1.04D-02
 ErrMax= 1.04D-02  0.00D+00 EMaxC= 1.00D-01 BMatC= 1.47D-02 BMatP= 3.22D-02
 IDIUse=3 WtCom= 8.96D-01 WtEn= 1.04D-01
 Coeff-Com: -0.400D-01 0.134D+00 0.424D+00 0.482D+00
 Coeff-En:   0.000D+00 0.000D+00 0.361D+00 0.639D+00
 Coeff:     -0.359D-01 0.120D+00 0.418D+00 0.498D+00
 Gap=     0.198 Goal=   None    Shift=    0.000
 RMSDP=1.87D-03 MaxDP=1.07D-01 DE=-1.19D-02 OVMax= 3.18D-02

 Cycle   5  Pass 1  IDiag  1:
 RMSU=  9.23D-04    CP:  6.32D-01  1.02D+00  8.78D-01  5.89D-01
 E= -650.049129155906     Delta-E=       -0.011264172259 Rises=F Damp=F
 DIIS: error= 1.41D-03 at cycle   5 NSaved=   5.
 NSaved= 5 IEnMin= 5 EnMin= -650.049129155906     IErMin= 5 ErrMin= 1.41D-03
 ErrMax= 1.41D-03  0.00D+00 EMaxC= 1.00D-01 BMatC= 2.39D-04 BMatP= 1.47D-02
 IDIUse=3 WtCom= 9.86D-01 WtEn= 1.41D-02
 Coeff-Com: -0.129D-01 0.381D-01 0.172D+00 0.240D+00 0.563D+00
 Coeff-En:   0.000D+00 0.000D+00 0.000D+00 0.000D+00 0.100D+01
 Coeff:     -0.127D-01 0.376D-01 0.170D+00 0.236D+00 0.569D+00
 Gap=     0.198 Goal=   None    Shift=    0.000
 RMSDP=3.47D-04 MaxDP=1.99D-02 DE=-1.13D-02 OVMax= 5.47D-03

 Cycle   6  Pass 1  IDiag  1:
 RMSU=  2.04D-04    CP:  6.34D-01  1.01D+00  8.93D-01  5.60D-01  8.20D-01
 E= -650.049322578292     Delta-E=       -0.000193422386 Rises=F Damp=F
 DIIS: error= 4.64D-04 at cycle   6 NSaved=   6.
 NSaved= 6 IEnMin= 6 EnMin= -650.049322578292     IErMin= 6 ErrMin= 4.64D-04
 ErrMax= 4.64D-04  0.00D+00 EMaxC= 1.00D-01 BMatC= 3.55D-05 BMatP= 2.39D-04
 IDIUse=3 WtCom= 9.95D-01 WtEn= 4.64D-03
 Coeff-Com: -0.218D-02 0.435D-02 0.391D-01 0.670D-01 0.318D+00 0.573D+00
 Coeff-En:   0.000D+00 0.000D+00 0.000D+00 0.000D+00 0.113D+00 0.887D+00
 Coeff:     -0.217D-02 0.433D-02 0.389D-01 0.667D-01 0.317D+00 0.575D+00
 Gap=     0.199 Goal=   None    Shift=    0.000
 RMSDP=1.17D-04 MaxDP=7.00D-03 DE=-1.93D-04 OVMax= 2.20D-03

 Cycle   7  Pass 1  IDiag  1:
 RMSU=  7.84D-05    CP:  6.35D-01  1.01D+00  8.99D-01  5.71D-01  8.10D-01
                    CP:  7.52D-01
 E= -650.049358240307     Delta-E=       -0.000035662015 Rises=F Damp=F
 DIIS: error= 1.16D-04 at cycle   7 NSaved=   7.
 NSaved= 7 IEnMin= 7 EnMin= -650.049358240307     IErMin= 7 ErrMin= 1.16D-04
 ErrMax= 1.16D-04  0.00D+00 EMaxC= 1.00D-01 BMatC= 2.24D-06 BMatP= 3.55D-05
 IDIUse=3 WtCom= 9.99D-01 WtEn= 1.16D-03
 Coeff-Com:  0.300D-03-0.203D-02-0.432D-03 0.425D-02 0.834D-01 0.261D+00
 Coeff-Com:  0.653D+00
 Coeff-En:   0.000D+00 0.000D+00 0.000D+00 0.000D+00 0.000D+00 0.000D+00
 Coeff-En:   0.100D+01
 Coeff:      0.299D-03-0.202D-02-0.432D-03 0.424D-02 0.833D-01 0.261D+00
 Coeff:      0.654D+00
 Gap=     0.198 Goal=   None    Shift=    0.000
 RMSDP=3.17D-05 MaxDP=1.30D-03 DE=-3.57D-05 OVMax= 4.99D-04

 Cycle   8  Pass 1  IDiag  1:
 RMSU=  2.19D-05    CP:  6.35D-01  1.01D+00  9.00D-01  5.69D-01  8.20D-01
                    CP:  8.28D-01  9.95D-01
 E= -650.049360456023     Delta-E=       -0.000002215716 Rises=F Damp=F
 DIIS: error= 3.39D-05 at cycle   8 NSaved=   8.
 NSaved= 8 IEnMin= 8 EnMin= -650.049360456023     IErMin= 8 ErrMin= 3.39D-05
 ErrMax= 3.39D-05  0.00D+00 EMaxC= 1.00D-01 BMatC= 2.51D-07 BMatP= 2.24D-06
 IDIUse=1 WtCom= 1.00D+00 WtEn= 0.00D+00
 Coeff-Com:  0.503D-03-0.172D-02-0.522D-02-0.724D-02-0.105D-02 0.485D-01
 Coeff-Com:  0.279D+00 0.687D+00
 Coeff:      0.503D-03-0.172D-02-0.522D-02-0.724D-02-0.105D-02 0.485D-01
 Coeff:      0.279D+00 0.687D+00
 Gap=     0.199 Goal=   None    Shift=    0.000
 RMSDP=2.26D-05 MaxDP=1.47D-03 DE=-2.22D-06 OVMax= 2.72D-04

 Cycle   9  Pass 1  IDiag  1:
 RMSU=  1.06D-05    CP:  6.35D-01  1.01D+00  9.01D-01  5.66D-01  8.31D-01
                    CP:  8.51D-01  1.00D+00  1.17D+00
 E= -650.049360736941     Delta-E=       -0.000000280918 Rises=F Damp=F
 DIIS: error= 1.32D-05 at cycle   9 NSaved=   9.
 NSaved= 9 IEnMin= 9 EnMin= -650.049360736941     IErMin= 9 ErrMin= 1.32D-05
 ErrMax= 1.32D-05  0.00D+00 EMaxC= 1.00D-01 BMatC= 4.81D-08 BMatP= 2.51D-07
 IDIUse=1 WtCom= 1.00D+00 WtEn= 0.00D+00
 Coeff-Com:  0.249D-03-0.704D-03-0.263D-02-0.442D-02-0.989D-02-0.303D-02
 Coeff-Com:  0.638D-01 0.356D+00 0.601D+00
 Coeff:      0.249D-03-0.704D-03-0.263D-02-0.442D-02-0.989D-02-0.303D-02
 Coeff:      0.638D-01 0.356D+00 0.601D+00
 Gap=     0.199 Goal=   None    Shift=    0.000
 RMSDP=6.11D-06 MaxDP=3.44D-04 DE=-2.81D-07 OVMax= 8.10D-05

 Cycle  10  Pass 1  IDiag  1:
 RMSU=  2.47D-06    CP:  6.35D-01  1.01D+00  9.01D-01  5.65D-01  8.32D-01
                    CP:  8.57D-01  1.01D+00  1.30D+00  1.05D+00
 E= -650.049360787715     Delta-E=       -0.000000050774 Rises=F Damp=F
 DIIS: error= 3.58D-06 at cycle  10 NSaved=  10.
 NSaved=10 IEnMin=10 EnMin= -650.049360787715     IErMin=10 ErrMin= 3.58D-06
 ErrMax= 3.58D-06  0.00D+00 EMaxC= 1.00D-01 BMatC= 3.53D-09 BMatP= 4.81D-08
 IDIUse=1 WtCom= 1.00D+00 WtEn= 0.00D+00
 Coeff-Com:  0.446D-05 0.578D-04 0.131D-03-0.210D-03-0.321D-02-0.888D-02
 Coeff-Com: -0.324D-01 0.120D-02 0.196D+00 0.847D+00
 Coeff:      0.446D-05 0.578D-04 0.131D-03-0.210D-03-0.321D-02-0.888D-02
 Coeff:     -0.324D-01 0.120D-02 0.196D+00 0.847D+00
 Gap=     0.199 Goal=   None    Shift=    0.000
 RMSDP=2.49D-06 MaxDP=1.42D-04 DE=-5.08D-08 OVMax= 6.27D-05

 Cycle  11  Pass 1  IDiag  1:
 RMSU=  9.71D-07    CP:  6.35D-01  1.01D+00  9.01D-01  5.65D-01  8.32D-01
                    CP:  8.59D-01  1.02D+00  1.34D+00  1.09D+00  1.05D+00
 E= -650.049360794121     Delta-E=       -0.000000006406 Rises=F Damp=F
 DIIS: error= 1.67D-06 at cycle  11 NSaved=  11.
 NSaved=11 IEnMin=11 EnMin= -650.049360794121     IErMin=11 ErrMin= 1.67D-06
 ErrMax= 1.67D-06  0.00D+00 EMaxC= 1.00D-01 BMatC= 4.17D-10 BMatP= 3.53D-09
 IDIUse=1 WtCom= 1.00D+00 WtEn= 0.00D+00
 Coeff-Com: -0.190D-04 0.796D-04 0.255D-03 0.265D-03-0.570D-03-0.296D-02
 Coeff-Com: -0.169D-01-0.289D-01 0.160D-01 0.319D+00 0.714D+00
 Coeff:     -0.190D-04 0.796D-04 0.255D-03 0.265D-03-0.570D-03-0.296D-02
 Coeff:     -0.169D-01-0.289D-01 0.160D-01 0.319D+00 0.714D+00
 Gap=     0.199 Goal=   None    Shift=    0.000
 RMSDP=7.69D-07 MaxDP=5.47D-05 DE=-6.41D-09 OVMax= 1.36D-05

 Cycle  12  Pass 1  IDiag  1:
 RMSU=  3.43D-07    CP:  6.35D-01  1.01D+00  9.01D-01  5.65D-01  8.32D-01
                    CP:  8.59D-01  1.01D+00  1.35D+00  1.12D+00  1.09D+00
                    CP:  1.02D+00
 E= -650.049360794788     Delta-E=       -0.000000000667 Rises=F Damp=F
 DIIS: error= 4.99D-07 at cycle  12 NSaved=  12.
 NSaved=12 IEnMin=12 EnMin= -650.049360794788     IErMin=12 ErrMin= 4.99D-07
 ErrMax= 4.99D-07  0.00D+00 EMaxC= 1.00D-01 BMatC= 7.65D-11 BMatP= 4.17D-10
 IDIUse=1 WtCom= 1.00D+00 WtEn= 0.00D+00
 Coeff-Com: -0.920D-05 0.247D-04 0.847D-04 0.146D-03 0.267D-03 0.340D-03
 Coeff-Com: -0.141D-02-0.127D-01-0.295D-01-0.166D-02 0.324D+00 0.720D+00
 Coeff:     -0.920D-05 0.247D-04 0.847D-04 0.146D-03 0.267D-03 0.340D-03
 Coeff:     -0.141D-02-0.127D-01-0.295D-01-0.166D-02 0.324D+00 0.720D+00
 Gap=     0.199 Goal=   None    Shift=    0.000
 RMSDP=1.60D-07 MaxDP=6.10D-06 DE=-6.67D-10 OVMax= 8.59D-06

 Cycle  13  Pass 1  IDiag  1:
 RMSU=  9.97D-08    CP:  6.35D-01  1.01D+00  9.01D-01  5.65D-01  8.32D-01
                    CP:  8.59D-01  1.01D+00  1.36D+00  1.13D+00  1.11D+00
                    CP:  1.07D+00  9.38D-01
 E= -650.049360794872     Delta-E=       -0.000000000084 Rises=F Damp=F
 DIIS: error= 1.68D-07 at cycle  13 NSaved=  13.
 NSaved=13 IEnMin=13 EnMin= -650.049360794872     IErMin=13 ErrMin= 1.68D-07
 ErrMax= 1.68D-07  0.00D+00 EMaxC= 1.00D-01 BMatC= 3.71D-12 BMatP= 7.65D-11
 IDIUse=1 WtCom= 1.00D+00 WtEn= 0.00D+00
 Coeff-Com: -0.653D-07-0.268D-05-0.519D-05 0.477D-05 0.122D-03 0.364D-03
 Coeff-Com:  0.140D-02 0.629D-03-0.788D-02-0.309D-01-0.994D-02 0.144D+00
 Coeff-Com:  0.903D+00
 Coeff:     -0.653D-07-0.268D-05-0.519D-05 0.477D-05 0.122D-03 0.364D-03
 Coeff:      0.140D-02 0.629D-03-0.788D-02-0.309D-01-0.994D-02 0.144D+00
 Coeff:      0.903D+00
 Gap=     0.199 Goal=   None    Shift=    0.000
 RMSDP=7.35D-08 MaxDP=4.44D-06 DE=-8.37D-11 OVMax= 2.57D-06

 Cycle  14  Pass 1  IDiag  1:
 RMSU=  3.62D-08    CP:  6.35D-01  1.01D+00  9.01D-01  5.65D-01  8.32D-01
                    CP:  8.59D-01  1.01D+00  1.36D+00  1.12D+00  1.10D+00
                    CP:  1.08D+00  1.04D+00  1.21D+00
 E= -650.049360794933     Delta-E=       -0.000000000061 Rises=F Damp=F
 DIIS: error= 9.48D-08 at cycle  14 NSaved=  14.
 NSaved=14 IEnMin=14 EnMin= -650.049360794933     IErMin=14 ErrMin= 9.48D-08
 ErrMax= 9.48D-08  0.00D+00 EMaxC= 1.00D-01 BMatC= 1.61D-12 BMatP= 3.71D-12
 IDIUse=1 WtCom= 1.00D+00 WtEn= 0.00D+00
 Coeff-Com:  0.982D-06-0.406D-05-0.123D-04-0.139D-04 0.338D-04 0.145D-03
 Coeff-Com:  0.848D-03 0.170D-02-0.119D-02-0.167D-01-0.402D-01 0.163D-02
 Coeff-Com:  0.484D+00 0.570D+00
 Coeff:      0.982D-06-0.406D-05-0.123D-04-0.139D-04 0.338D-04 0.145D-03
 Coeff:      0.848D-03 0.170D-02-0.119D-02-0.167D-01-0.402D-01 0.163D-02
 Coeff:      0.484D+00 0.570D+00
 Gap=     0.199 Goal=   None    Shift=    0.000
 RMSDP=2.64D-08 MaxDP=2.07D-06 DE=-6.09D-11 OVMax= 1.06D-06

 Cycle  15  Pass 1  IDiag  1:
 RMSU=  1.60D-08    CP:  6.35D-01  1.01D+00  9.01D-01  5.65D-01  8.32D-01
                    CP:  8.59D-01  1.01D+00  1.36D+00  1.13D+00  1.10D+00
                    CP:  1.08D+00  1.07D+00  1.27D+00  8.41D-01
 E= -650.049360794941     Delta-E=       -0.000000000008 Rises=F Damp=F
 DIIS: error= 2.92D-08 at cycle  15 NSaved=  15.
 NSaved=15 IEnMin=15 EnMin= -650.049360794941     IErMin=15 ErrMin= 2.92D-08
 ErrMax= 2.92D-08  0.00D+00 EMaxC= 1.00D-01 BMatC= 1.24D-13 BMatP= 1.61D-12
 IDIUse=1 WtCom= 1.00D+00 WtEn= 0.00D+00
 Coeff-Com:  0.371D-06-0.884D-06-0.303D-05-0.494D-05-0.106D-04-0.248D-04
 Coeff-Com: -0.265D-04 0.484D-03 0.135D-02 0.469D-03-0.136D-01-0.314D-01
 Coeff-Com: -0.221D-01 0.196D+00 0.869D+00
 Coeff:      0.371D-06-0.884D-06-0.303D-05-0.494D-05-0.106D-04-0.248D-04
 Coeff:     -0.265D-04 0.484D-03 0.135D-02 0.469D-03-0.136D-01-0.314D-01
 Coeff:     -0.221D-01 0.196D+00 0.869D+00
 Gap=     0.199 Goal=   None    Shift=    0.000
 RMSDP=9.41D-09 MaxDP=6.85D-07 DE=-7.96D-12 OVMax= 3.94D-07

 SCF Done:  E(RMN15) =  -650.049360795     A.U. after   15 cycles
            NFock= 15  Conv=0.94D-08     -V/T= 2.0032
 KE= 6.479852058169D+02 PE=-3.303880719522D+03 EE= 1.111853397568D+03
 Leave Link  502 at Tue Dec  5 20:05:12 2023, MaxMem=  2147483648 cpu:            2577.3 elap:             101.7
 (Enter /opt/gaussian/g16-c01/g16/l601.exe)
 Copying SCF densities to generalized density rwf, IOpCl= 0 IROHF=0.

 **********************************************************************

            Population analysis using the SCF Density.

 **********************************************************************

 Orbital symmetries:
       Occupied  (A) (A) (A) (A) (A) (A) (A) (A) (A) (A) (A) (A)
                 (A) (A) (A) (A) (A) (A) (A) (A) (A) (A) (A) (A)
                 (A) (A) (A) (A) (A) (A) (A) (A) (A) (A) (A) (A)
                 (A) (A) (A) (A) (A) (A) (A) (A) (A) (A) (A) (A)
                 (A) (A) (A)
       Virtual   (A) (A) (A) (A) (A) (A) (A) (A) (A) (A) (A) (A)
                 (A) (A) (A) (A) (A) (A) (A) (A) (A) (A) (A) (A)
                 (A) (A) (A) (A) (A) (A) (A) (A) (A) (A) (A) (A)
                 (A) (A) (A) (A) (A) (A) (A) (A) (A) (A) (A) (A)
                 (A) (A) (A) (A) (A) (A) (A) (A) (A) (A) (A) (A)
                 (A) (A) (A) (A) (A) (A) (A) (A) (A) (A) (A) (A)
                 (A) (A) (A) (A) (A) (A) (A) (A) (A) (A) (A) (A)
                 (A) (A) (A) (A) (A) (A) (A) (A) (A) (A) (A) (A)
                 (A) (A) (A) (A) (A) (A) (A) (A) (A) (A) (A) (A)
                 (A) (A) (A) (A) (A) (A) (A) (A) (A) (A) (A) (A)
                 (A) (A) (A) (A) (A) (A) (A) (A) (A) (A) (A) (A)
                 (A) (A) (A) (A) (A) (A) (A) (A) (A) (A) (A) (A)
                 (A) (A) (A) (A) (A) (A) (A) (A) (A) (A) (A) (A)
                 (A) (A) (A) (A) (A) (A) (A) (A) (A) (A) (A) (A)
                 (A) (A) (A) (A) (A) (A) (A) (A) (A) (A) (A) (A)
                 (A) (A) (A) (A) (A) (A) (A) (A) (A) (A) (A) (A)
                 (A) (A) (A) (A) (A) (A) (A) (A) (A) (A) (A) (A)
                 (A) (A) (A) (A) (A) (A) (A) (A) (A) (A) (A) (A)
                 (A) (A) (A) (A) (A) (A) (A) (A) (A) (A) (A) (A)
                 (A) (A) (A) (A) (A) (A) (A) (A) (A) (A) (A) (A)
                 (A) (A) (A) (A) (A) (A) (A) (A) (A) (A) (A) (A)
                 (A) (A) (A) (A) (A) (A) (A) (A) (A) (A) (A) (A)
                 (A) (A) (A) (A) (A) (A) (A) (A) (A) (A) (A) (A)
                 (A) (A) (A) (A) (A) (A) (A) (A) (A) (A) (A) (A)
                 (A) (A) (A) (A) (A) (A) (A) (A) (A) (A) (A) (A)
                 (A) (A) (A) (A) (A) (A) (A) (A) (A) (A) (A) (A)
                 (A) (A) (A) (A) (A) (A) (A) (A) (A) (A) (A) (A)
                 (A) (A) (A) (A) (A) (A)
 The electronic state is 1-A.
 Alpha  occ. eigenvalues --  -18.84738 -18.79211 -10.12859 -10.12710 -10.07012
 Alpha  occ. eigenvalues --  -10.06968 -10.06476 -10.06254 -10.06049 -10.05982
 Alpha  occ. eigenvalues --  -10.05913 -10.05727 -10.05590 -10.05092 -10.04933
 Alpha  occ. eigenvalues --   -1.12329  -1.08307  -0.95321  -0.91068  -0.85906
 Alpha  occ. eigenvalues --   -0.82041  -0.80328  -0.77820  -0.72015  -0.69840
 Alpha  occ. eigenvalues --   -0.65568  -0.64589  -0.61863  -0.59101  -0.56304
 Alpha  occ. eigenvalues --   -0.54717  -0.53662  -0.50587  -0.50267  -0.49867
 Alpha  occ. eigenvalues --   -0.48645  -0.48440  -0.46949  -0.46049  -0.44809
 Alpha  occ. eigenvalues --   -0.42433  -0.41875  -0.41432  -0.40981  -0.40166
 Alpha  occ. eigenvalues --   -0.39500  -0.33645  -0.30511  -0.29669  -0.28450
 Alpha  occ. eigenvalues --   -0.26733
 Alpha virt. eigenvalues --   -0.06882  -0.02575   0.01325   0.02416   0.03279
 Alpha virt. eigenvalues --    0.04087   0.04383   0.05123   0.05827   0.07219
 Alpha virt. eigenvalues --    0.07274   0.07797   0.08420   0.09709   0.10329
 Alpha virt. eigenvalues --    0.10690   0.11086   0.11322   0.12273   0.12387
 Alpha virt. eigenvalues --    0.13069   0.13657   0.14230   0.14482   0.14602
 Alpha virt. eigenvalues --    0.14774   0.15091   0.15636   0.16411   0.16715
 Alpha virt. eigenvalues --    0.17402   0.18173   0.18199   0.18454   0.18665
 Alpha virt. eigenvalues --    0.18718   0.19596   0.20574   0.20671   0.20945
 Alpha virt. eigenvalues --    0.21488   0.21948   0.22874   0.22906   0.23322
 Alpha virt. eigenvalues --    0.23850   0.23888   0.24232   0.24733   0.25236
 Alpha virt. eigenvalues --    0.25829   0.25970   0.26763   0.27685   0.28088
 Alpha virt. eigenvalues --    0.28811   0.28995   0.29074   0.30061   0.30432
 Alpha virt. eigenvalues --    0.30879   0.31324   0.31568   0.32802   0.33299
 Alpha virt. eigenvalues --    0.33394   0.33705   0.34298   0.34392   0.34650
 Alpha virt. eigenvalues --    0.35660   0.36198   0.36631   0.36673   0.37654
 Alpha virt. eigenvalues --    0.37884   0.37936   0.38530   0.39222   0.39486
 Alpha virt. eigenvalues --    0.40565   0.41591   0.43138   0.43263   0.44090
 Alpha virt. eigenvalues --    0.44844   0.46589   0.48791   0.50500   0.51199
 Alpha virt. eigenvalues --    0.54055   0.54851   0.55490   0.56473   0.57139
 Alpha virt. eigenvalues --    0.58334   0.58543   0.58797   0.59717   0.60573
 Alpha virt. eigenvalues --    0.61092   0.61223   0.61633   0.62702   0.62752
 Alpha virt. eigenvalues --    0.63417   0.64186   0.65302   0.66003   0.66439
 Alpha virt. eigenvalues --    0.67473   0.67801   0.68273   0.68763   0.69570
 Alpha virt. eigenvalues --    0.69990   0.72333   0.73483   0.73980   0.74875
 Alpha virt. eigenvalues --    0.75871   0.75963   0.77285   0.78935   0.81072
 Alpha virt. eigenvalues --    0.81654   0.82467   0.84910   0.86289   0.86560
 Alpha virt. eigenvalues --    0.87801   0.89337   0.90450   0.90593   0.91819
 Alpha virt. eigenvalues --    0.92180   0.93608   0.95370   0.95678   0.96221
 Alpha virt. eigenvalues --    0.96452   0.99310   0.99616   1.00483   1.00503
 Alpha virt. eigenvalues --    1.01633   1.01739   1.02888   1.04963   1.06555
 Alpha virt. eigenvalues --    1.06787   1.07355   1.08446   1.08622   1.09047
 Alpha virt. eigenvalues --    1.10957   1.12197   1.14528   1.14807   1.16516
 Alpha virt. eigenvalues --    1.17121   1.19416   1.21586   1.21932   1.26339
 Alpha virt. eigenvalues --    1.26897   1.28034   1.32779   1.33652   1.36183
 Alpha virt. eigenvalues --    1.36789   1.38562   1.42302   1.43024   1.43328
 Alpha virt. eigenvalues --    1.46157   1.49895   1.50890   1.51183   1.51597
 Alpha virt. eigenvalues --    1.54079   1.55810   1.56114   1.56546   1.57035
 Alpha virt. eigenvalues --    1.57827   1.58489   1.62224   1.63438   1.67377
 Alpha virt. eigenvalues --    1.67913   1.68996   1.69574   1.72514   1.72590
 Alpha virt. eigenvalues --    1.73305   1.74558   1.75833   1.77224   1.79334
 Alpha virt. eigenvalues --    1.82003   1.82816   1.84555   1.85081   1.86668
 Alpha virt. eigenvalues --    1.86997   1.88147   1.88854   1.92002   1.92422
 Alpha virt. eigenvalues --    1.93116   1.94022   1.94093   1.95957   1.96530
 Alpha virt. eigenvalues --    1.96811   1.98465   2.00488   2.03687   2.04382
 Alpha virt. eigenvalues --    2.04938   2.06540   2.07288   2.09990   2.12286
 Alpha virt. eigenvalues --    2.13164   2.18735   2.19869   2.24765   2.25076
 Alpha virt. eigenvalues --    2.30315   2.30542   2.32353   2.33266   2.36142
 Alpha virt. eigenvalues --    2.39089   2.43133   2.44388   2.46829   2.49498
 Alpha virt. eigenvalues --    2.55144   2.58773   2.60619   2.61041   2.63078
 Alpha virt. eigenvalues --    2.63682   2.66704   2.68245   2.68369   2.69501
 Alpha virt. eigenvalues --    2.70774   2.71532   2.72850   2.73476   2.74448
 Alpha virt. eigenvalues --    2.75390   2.75863   2.76218   2.76258   2.78329
 Alpha virt. eigenvalues --    2.79788   2.80905   2.81224   2.83567   2.86965
 Alpha virt. eigenvalues --    2.86983   2.92445   2.92857   2.92864   2.94227
 Alpha virt. eigenvalues --    2.95513   3.04750   3.05644   3.06681   3.08177
 Alpha virt. eigenvalues --    3.14499   3.15458   3.16353   3.20179   3.22866
 Alpha virt. eigenvalues --    3.24273   3.31230   3.32649   3.34635   3.35179
 Alpha virt. eigenvalues --    3.37410   3.40197   3.46327   3.47060   3.47660
 Alpha virt. eigenvalues --    3.50772   3.54948   3.60049   3.65326   3.68793
 Alpha virt. eigenvalues --    3.72597   3.83596   3.85043   3.94323   3.94992
 Alpha virt. eigenvalues --    3.97649   4.02055   4.05855   4.16582   4.18419
 Alpha virt. eigenvalues --    4.34326   4.63334   4.69722   4.73510   4.92828
 Alpha virt. eigenvalues --    4.99503   5.19365   5.37334   5.63083   5.69794
 Alpha virt. eigenvalues --   22.40403  22.60463  22.79775  22.82787  22.83720
 Alpha virt. eigenvalues --   22.85404  22.87462  22.94199  22.94831  22.96786
 Alpha virt. eigenvalues --   22.98749  23.04351  23.06258  47.49908  47.61926
          Condensed to atoms (all electrons):
               1          2          3          4          5          6
     1  O    8.163747   0.023066  -0.251721  -0.277547   0.039119  -0.042953
     2  O    0.023066   8.073353  -0.017710  -0.002236  -0.480624   0.017953
     3  C   -0.251721  -0.017710  12.314828   3.375556  -0.681569  -2.586269
     4  C   -0.277547  -0.002236   3.375556  12.491726  -3.275824   0.146288
     5  C    0.039119  -0.480624  -0.681569  -3.275824  14.429296   1.140263
     6  C   -0.042953   0.017953  -2.586269   0.146288   1.140263  13.713501
     7  C    0.537784  -0.163831   0.526785   0.877189   0.142156   0.518007
     8  C    0.017939   0.118824  -2.553355  -1.574305   1.629131  -1.505250
     9  C    0.008415   0.009367  -1.889261  -2.655568  -0.610198  -3.313520
    10  C   -0.009713  -0.001131  -1.095879  -0.880207  -2.104546  -1.770159
    11  C    0.118760   0.003421  -2.293185  -2.260702  -1.987881  -0.320454
    12  C   -0.077239   0.408378   0.464354  -0.133036  -2.972704  -0.951633
    13  C   -0.000267   0.058704  -0.050316   0.965017   0.042661   0.917236
    14  C   -0.000541  -0.000576   0.640480  -1.082314   0.087437  -0.344475
    15  C   -0.000468   0.000627  -0.154535   0.225555  -0.003002  -0.384658
    16  H    0.000678   0.000040  -0.077826  -0.179328   0.052121  -0.112571
    17  H    0.000404   0.000126  -0.110201   0.009445  -0.051901   0.041322
    18  H    0.003303  -0.000012   0.000079   0.025757  -0.055945  -0.070679
    19  H    0.000987  -0.030588   0.057351   0.000161   0.059524   0.008085
    20  H    0.000088  -0.001012   0.039392   0.036998   0.028590   0.023087
    21  H    0.000014  -0.000009   0.042693   0.026609   0.011321   0.005239
    22  H    0.001269  -0.000006  -0.008301   0.011180   0.010835   0.046809
    23  H   -0.001761   0.192205  -0.030859  -0.010049   0.112065  -0.002415
               7          8          9         10         11         12
     1  O    0.537784   0.017939   0.008415  -0.009713   0.118760  -0.077239
     2  O   -0.163831   0.118824   0.009367  -0.001131   0.003421   0.408378
     3  C    0.526785  -2.553355  -1.889261  -1.095879  -2.293185   0.464354
     4  C    0.877189  -1.574305  -2.655568  -0.880207  -2.260702  -0.133036
     5  C    0.142156   1.629131  -0.610198  -2.104546  -1.987881  -2.972704
     6  C    0.518007  -1.505250  -3.313520  -1.770159  -0.320454  -0.951633
     7  C   10.649451  -2.809709  -1.864330  -0.786782  -0.091274  -1.654999
     8  C   -2.809709  12.227860   3.456390   0.226182  -1.016618  -0.454653
     9  C   -1.864330   3.456390  14.238951   1.452383  -0.526648   0.543098
    10  C   -0.786782   0.226182   1.452383   9.225671   2.534154   0.061590
    11  C   -0.091274  -1.016618  -0.526648   2.534154  11.894329  -0.281301
    12  C   -1.654999  -0.454653   0.543098   0.061590  -0.281301  10.682646
    13  C    0.316116  -1.860482  -2.517202  -0.414454   0.345332   0.399297
    14  C   -0.357573   0.149817   0.266100   0.325748  -0.610796  -0.016219
    15  C    0.146204   0.023507  -0.115586  -0.673658   0.349734   0.035471
    16  H   -0.039564   0.124757   0.625314   0.056403  -0.036116   0.049959
    17  H    0.012295  -0.020345  -0.014266   0.425261   0.105232  -0.010409
    18  H   -0.000936  -0.012486   0.004142   0.059461   0.465143  -0.004652
    19  H    0.020513  -0.223144  -0.103743  -0.009039  -0.000293   0.412006
    20  H   -0.004919  -0.009143  -0.220076  -0.001493   0.004712  -0.074797
    21  H   -0.019601   0.002999   0.010062  -0.141242  -0.054252   0.000313
    22  H    0.015860   0.002482  -0.006298  -0.044387  -0.138003   0.000666
    23  H    0.014844   0.235992   0.018076   0.001614  -0.003299  -0.286665
              13         14         15         16         17         18
     1  O   -0.000267  -0.000541  -0.000468   0.000678   0.000404   0.003303
     2  O    0.058704  -0.000576   0.000627   0.000040   0.000126  -0.000012
     3  C   -0.050316   0.640480  -0.154535  -0.077826  -0.110201   0.000079
     4  C    0.965017  -1.082314   0.225555  -0.179328   0.009445   0.025757
     5  C    0.042661   0.087437  -0.003002   0.052121  -0.051901  -0.055945
     6  C    0.917236  -0.344475  -0.384658  -0.112571   0.041322  -0.070679
     7  C    0.316116  -0.357573   0.146204  -0.039564   0.012295  -0.000936
     8  C   -1.860482   0.149817   0.023507   0.124757  -0.020345  -0.012486
     9  C   -2.517202   0.266100  -0.115586   0.625314  -0.014266   0.004142
    10  C   -0.414454   0.325748  -0.673658   0.056403   0.425261   0.059461
    11  C    0.345332  -0.610796   0.349734  -0.036116   0.105232   0.465143
    12  C    0.399297  -0.016219   0.035471   0.049959  -0.010409  -0.004652
    13  C    7.736009  -0.260937  -0.021802  -0.190711   0.050784   0.001411
    14  C   -0.260937   6.938196   0.253454   0.050554  -0.153133  -0.013311
    15  C   -0.021802   0.253454   6.150953  -0.013679   0.021204  -0.079124
    16  H   -0.190711   0.050554  -0.013679   0.677591  -0.010175   0.000470
    17  H    0.050784  -0.153133   0.021204  -0.010175   0.666426   0.002699
    18  H    0.001411  -0.013311  -0.079124   0.000470   0.002699   0.561054
    19  H    0.098826  -0.000616  -0.000015  -0.002526  -0.000519  -0.000080
    20  H    0.493056  -0.001526   0.000204  -0.033120   0.002260  -0.000011
    21  H   -0.002978   0.481316  -0.042145   0.002891  -0.032877  -0.001763
    22  H   -0.000197  -0.039521   0.468558  -0.000770  -0.000816  -0.019954
    23  H   -0.019454   0.000365  -0.000267   0.000451   0.000015   0.000061
              19         20         21         22         23
     1  O    0.000987   0.000088   0.000014   0.001269  -0.001761
     2  O   -0.030588  -0.001012  -0.000009  -0.000006   0.192205
     3  C    0.057351   0.039392   0.042693  -0.008301  -0.030859
     4  C    0.000161   0.036998   0.026609   0.011180  -0.010049
     5  C    0.059524   0.028590   0.011321   0.010835   0.112065
     6  C    0.008085   0.023087   0.005239   0.046809  -0.002415
     7  C    0.020513  -0.004919  -0.019601   0.015860   0.014844
     8  C   -0.223144  -0.009143   0.002999   0.002482   0.235992
     9  C   -0.103743  -0.220076   0.010062  -0.006298   0.018076
    10  C   -0.009039  -0.001493  -0.141242  -0.044387   0.001614
    11  C   -0.000293   0.004712  -0.054252  -0.138003  -0.003299
    12  C    0.412006  -0.074797   0.000313   0.000666  -0.286665
    13  C    0.098826   0.493056  -0.002978  -0.000197  -0.019454
    14  C   -0.000616  -0.001526   0.481316  -0.039521   0.000365
    15  C   -0.000015   0.000204  -0.042145   0.468558  -0.000267
    16  H   -0.002526  -0.033120   0.002891  -0.000770   0.000451
    17  H   -0.000519   0.002260  -0.032877  -0.000816   0.000015
    18  H   -0.000080  -0.000011  -0.001763  -0.019954   0.000061
    19  H    0.657725  -0.026708   0.000031  -0.000012   0.005892
    20  H   -0.026708   0.592284  -0.000116   0.000036   0.000344
    21  H    0.000031  -0.000116   0.593310  -0.024315   0.000005
    22  H   -0.000012   0.000036  -0.024315   0.590444   0.000000
    23  H    0.005892   0.000344   0.000005   0.000000   0.504817
 Mulliken charges:
               1
     1  O   -0.253366
     2  O   -0.208331
     3  C    0.339468
     4  C    0.139634
     5  C    0.439673
     6  C    0.827245
     7  C    0.016313
     8  C   -0.176389
     9  C   -0.795602
    10  C   -0.435777
    11  C   -0.199996
    12  C   -0.139471
    13  C   -0.085650
    14  C   -0.311926
    15  C   -0.186533
    16  H    0.055156
    17  H    0.067170
    18  H    0.135373
    19  H    0.076185
    20  H    0.151870
    21  H    0.142496
    22  H    0.134437
    23  H    0.268020
 Sum of Mulliken charges =  -0.00000
 Mulliken charges with hydrogens summed into heavy atoms:
               1
     1  O   -0.253366
     2  O    0.059690
     3  C    0.339468
     4  C    0.139634
     5  C    0.439673
     6  C    0.827245
     7  C    0.016313
     8  C   -0.176389
     9  C   -0.740446
    10  C   -0.368607
    11  C   -0.064623
    12  C   -0.063286
    13  C    0.066220
    14  C   -0.169431
    15  C   -0.052096
 Electronic spatial extent (au):  <R**2>=           2924.2463
 Charge=             -0.0000 electrons
 Dipole moment (field-independent basis, Debye):
    X=              0.8046    Y=             -4.0891    Z=              0.0018  Tot=              4.1675
 Quadrupole moment (field-independent basis, Debye-Ang):
   XX=            -60.3134   YY=            -89.0042   ZZ=            -90.5043
   XY=             -2.1661   XZ=              0.0030   YZ=             -0.0007
 Traceless Quadrupole moment (field-independent basis, Debye-Ang):
   XX=             19.6272   YY=             -9.0635   ZZ=            -10.5636
   XY=             -2.1661   XZ=              0.0030   YZ=             -0.0007
 Octapole moment (field-independent basis, Debye-Ang**2):
  XXX=             59.7760  YYY=            -36.3438  ZZZ=              0.0042  XYY=             -6.2385
  XXY=             12.0382  XXZ=              0.0551  XZZ=              7.7132  YZZ=             11.1992
  YYZ=              0.0075  XYZ=              0.0082
 Hexadecapole moment (field-independent basis, Debye-Ang**3):
 XXXX=          -2170.8942 YYYY=          -1146.7442 ZZZZ=           -101.5507 XXXY=             75.9819
 XXXZ=              0.0792 YYYX=            -16.4420 YYYZ=              0.0013 ZZZX=              0.0109
 ZZZY=             -0.0007 XXYY=           -575.0929 XXZZ=           -527.3209 YYZZ=           -217.4157
 XXYZ=              0.0090 YYXZ=             -0.0003 ZZXY=             12.9016
 N-N= 8.939927553423D+02 E-N=-3.303880722066D+03  KE= 6.479852058169D+02
 No NMR shielding tensors so no spin-rotation constants.
 Leave Link  601 at Tue Dec  5 20:05:13 2023, MaxMem=  2147483648 cpu:              14.4 elap:               0.6
 (Enter /opt/gaussian/g16-c01/g16/l701.exe)
 ... and contract with generalized density number  0.
 Compute integral first derivatives.
 Leave Link  701 at Tue Dec  5 20:05:14 2023, MaxMem=  2147483648 cpu:              10.4 elap:               0.5
 (Enter /opt/gaussian/g16-c01/g16/l702.exe)
 L702 exits ... SP integral derivatives will be done elsewhere.
 Leave Link  702 at Tue Dec  5 20:05:14 2023, MaxMem=  2147483648 cpu:               0.8 elap:               0.1
 (Enter /opt/gaussian/g16-c01/g16/l703.exe)
 Integral derivatives from FoFJK, PRISM(SPDF).
 Compute integral first derivatives, UseDBF=F ICtDFT=           0.
 Calling FoFJK, ICntrl=      2127 FMM=F ISym2X=0 I1Cent= 0 IOpClX= 0 NMat=1 NMatS=1 NMatT=0.
 FoFJK:  IHMeth= 1 ICntrl=    2127 DoSepK=F KAlg= 0 I1Cent=           0 FoldK=F
 IRaf=         0 NMat=       1 IRICut=       1 DoRegI=T DoRafI=F ISym2E= 0 IDoP0=0 IntGTp=1.
 FoFCou: FMM=F IPFlag=           0 FMFlag=      100000 FMFlg1=         800
         NFxFlg=           0 DoJE=F BraDBF=F KetDBF=F FulRan=T
         wScrn=  0.000000 ICntrl=      2127 IOpCl=  0 I1Cent=           0 NGrid=           0
         NMat0=    1 NMatS0=      1 NMatT0=    0 NMatD0=    1 NMtDS0=    0 NMtDT0=    0
 Symmetry not used in FoFCou.
 Leave Link  703 at Tue Dec  5 20:05:23 2023, MaxMem=  2147483648 cpu:             236.7 elap:               9.3
 (Enter /opt/gaussian/g16-c01/g16/l716.exe)
 Dipole        = 3.16564915D-01-1.60875848D+00 7.05408473D-04
 ***** Axes restored to original set *****
 -------------------------------------------------------------------
 Center     Atomic                   Forces (Hartrees/Bohr)
 Number     Number              X              Y              Z
 -------------------------------------------------------------------
      1        8           0.002008849   -0.003140156   -0.000015074
      2        8          -0.001586715    0.003838435   -0.000024384
      3        6          -0.028415183    0.002897682   -0.000033536
      4        6           0.022673570   -0.007057929    0.000020307
      5        6           0.011357693   -0.004585123   -0.000004734
      6        6          -0.001204777    0.006666195    0.000005445
      7        6          -0.006139975   -0.016643686    0.000031426
      8        6          -0.011370684    0.000495708    0.000052816
      9        6          -0.000881702    0.005606244    0.000014081
     10        6           0.005650807    0.002345816   -0.000004628
     11        6           0.002483777    0.004662935   -0.000023952
     12        6           0.000674981    0.023873555   -0.000022975
     13        6          -0.003684704   -0.012952144    0.000009369
     14        6           0.000800886   -0.008824558   -0.000019672
     15        6           0.004191423    0.010206309    0.000030078
     16        1           0.000139166   -0.000415690   -0.000001065
     17        1          -0.000397141   -0.000028337   -0.000000503
     18        1          -0.002622481   -0.000641708    0.000000517
     19        1           0.000750825   -0.001466477   -0.000000160
     20        1           0.000607738   -0.002543719   -0.000003146
     21        1          -0.001535454   -0.001573721    0.000000088
     22        1          -0.001656946    0.001400754   -0.000004642
     23        1           0.008156050   -0.002120387   -0.000005656
 -------------------------------------------------------------------
 Cartesian Forces:  Max     0.028415183 RMS     0.006808281
 Leave Link  716 at Tue Dec  5 20:05:23 2023, MaxMem=  2147483648 cpu:               0.5 elap:               0.1
 (Enter /opt/gaussian/g16-c01/g16/l103.exe)

 GradGradGradGradGradGradGradGradGradGradGradGradGradGradGradGradGradGrad
 Berny optimization.
 FormGI is forming the generalized inverse of G from B-inverse, IUseBI=4.
 GSVD:  received Info=                   1 from GESDD.
 Internal  Forces:  Max     0.019972138 RMS     0.003801485
 Search for a local minimum.
 Step number   1 out of a maximum of  137
 All quantities printed in internal units (Hartrees-Bohrs-Radians)
 RMS Force = .38015D-02 SwitMx=.10000D-02 MixMth= 1
 Mixed Optimization -- RFO/linear search
 Second derivative matrix not updated -- first step.
 ITU=  0
     Eigenvalues ---    0.01054   0.01516   0.01723   0.01853   0.01884
     Eigenvalues ---    0.01932   0.02004   0.02026   0.02028   0.02074
     Eigenvalues ---    0.02077   0.02084   0.02088   0.02203   0.02203
     Eigenvalues ---    0.02237   0.02243   0.02262   0.02268   0.02299
     Eigenvalues ---    0.16000   0.16000   0.16000   0.16000   0.16000
     Eigenvalues ---    0.16000   0.16000   0.16000   0.22000   0.22100
     Eigenvalues ---    0.22611   0.23540   0.24528   0.24924   0.25000
     Eigenvalues ---    0.25000   0.25000   0.25000   0.33159   0.33513
     Eigenvalues ---    0.35094   0.35145   0.35156   0.35174   0.35416
     Eigenvalues ---    0.35423   0.35595   0.37657   0.38499   0.40572
     Eigenvalues ---    0.42766   0.42938   0.43516   0.44344   0.45684
     Eigenvalues ---    0.45747   0.47703   0.47711   0.48383   0.48410
     Eigenvalues ---    0.52842   0.54159   0.99324
 RFO step:  Lambda=-5.27826469D-03 EMin= 1.05420669D-02
 Linear search not attempted -- first point.
 Iteration  1 RMS(Cart)=  0.01656613 RMS(Int)=  0.00012201
 Iteration  2 RMS(Cart)=  0.00028980 RMS(Int)=  0.00002996
 Iteration  3 RMS(Cart)=  0.00000001 RMS(Int)=  0.00002996
 ITry= 1 IFail=0 DXMaxC= 7.99D-02 DCOld= 1.00D+10 DXMaxT= 3.00D-01 DXLimC= 3.00D+00 Rises=F
 Variable       Old X    -DE/DX   Delta X   Delta X   Delta X     New X
                                 (Linear)    (Quad)   (Total)
    R1        2.28911   0.00284   0.00000   0.00284   0.00284   2.29195
    R2        2.55887  -0.00444   0.00000  -0.00812  -0.00812   2.55075
    R3        1.83802  -0.00836   0.00000  -0.01567  -0.01567   1.82235
    R4        2.73445   0.01997   0.00000   0.05146   0.05140   2.78585
    R5        2.65644   0.00066   0.00000   0.00340   0.00345   2.65989
    R6        2.61465   0.00286   0.00000   0.00586   0.00587   2.62052
    R7        2.65623  -0.00310   0.00000  -0.00652  -0.00655   2.64968
    R8        2.61455   0.00429   0.00000   0.00910   0.00910   2.62365
    R9        2.79342   0.01040   0.00000   0.02942   0.02948   2.82291
   R10        2.60799   0.00702   0.00000   0.01538   0.01542   2.62341
   R11        2.79340   0.01203   0.00000   0.03328   0.03332   2.82672
   R12        2.60834   0.00160   0.00000   0.00352   0.00353   2.61187
   R13        2.63572   0.00858   0.00000   0.01821   0.01820   2.65392
   R14        2.64658  -0.00159   0.00000  -0.00477  -0.00482   2.64177
   R15        2.04993  -0.00032   0.00000  -0.00089  -0.00089   2.04904
   R16        2.64674  -0.00205   0.00000  -0.00475  -0.00477   2.64197
   R17        2.05004   0.00004   0.00000   0.00010   0.00010   2.05014
   R18        2.63566   0.00336   0.00000   0.00679   0.00679   2.64245
   R19        2.04719   0.00018   0.00000   0.00051   0.00051   2.04770
   R20        2.66114  -0.01499   0.00000  -0.03478  -0.03484   2.62630
   R21        2.05523  -0.00068   0.00000  -0.00192  -0.00192   2.05331
   R22        2.05440  -0.00244   0.00000  -0.00685  -0.00685   2.04756
   R23        2.66121  -0.01093   0.00000  -0.02506  -0.02508   2.63613
   R24        2.05422  -0.00218   0.00000  -0.00612  -0.00612   2.04810
   R25        2.05393  -0.00203   0.00000  -0.00568  -0.00568   2.04825
    A1        1.90086   0.00196   0.00000   0.01187   0.01187   1.91273
    A2        1.90489  -0.00285   0.00000  -0.00979  -0.00987   1.89502
    A3        2.29081  -0.00226   0.00000  -0.01159  -0.01161   2.27920
    A4        2.08748   0.00510   0.00000   0.02138   0.02148   2.10896
    A5        1.90498  -0.00174   0.00000  -0.00643  -0.00651   1.89847
    A6        2.29079   0.00030   0.00000  -0.00019  -0.00016   2.29063
    A7        2.08741   0.00144   0.00000   0.00663   0.00667   2.09408
    A8        1.87795   0.00515   0.00000   0.01968   0.01970   1.89765
    A9        2.15192  -0.01055   0.00000  -0.03728  -0.03721   2.11471
   A10        2.25331   0.00540   0.00000   0.01760   0.01751   2.27082
   A11        1.87799   0.00562   0.00000   0.02078   0.02080   1.89879
   A12        2.15199  -0.00600   0.00000  -0.02182  -0.02181   2.13018
   A13        2.25321   0.00038   0.00000   0.00103   0.00101   2.25422
   A14        2.21766   0.00586   0.00000   0.02296   0.02289   2.24056
   A15        2.20656   0.00032   0.00000   0.00129   0.00122   2.20778
   A16        1.85896  -0.00618   0.00000  -0.02424  -0.02412   1.83485
   A17        2.13498  -0.00933   0.00000  -0.03800  -0.03801   2.09696
   A18        2.10820   0.00578   0.00000   0.02122   0.02120   2.12940
   A19        2.04001   0.00355   0.00000   0.01678   0.01681   2.05682
   A20        2.06377  -0.00053   0.00000  -0.00461  -0.00464   2.05913
   A21        2.12330  -0.00004   0.00000   0.00044   0.00046   2.12375
   A22        2.09612   0.00057   0.00000   0.00417   0.00418   2.10030
   A23        2.06390   0.00046   0.00000   0.00189   0.00187   2.06577
   A24        2.12330  -0.00064   0.00000  -0.00342  -0.00341   2.11989
   A25        2.09598   0.00018   0.00000   0.00153   0.00154   2.09752
   A26        2.03998   0.00400   0.00000   0.01734   0.01736   2.05734
   A27        2.12970  -0.00475   0.00000  -0.02533  -0.02534   2.10436
   A28        2.11351   0.00076   0.00000   0.00799   0.00798   2.12149
   A29        2.10909   0.00024   0.00000  -0.00111  -0.00118   2.10791
   A30        2.10168  -0.00166   0.00000  -0.00879  -0.00876   2.09292
   A31        2.07242   0.00143   0.00000   0.00990   0.00994   2.08235
   A32        2.11410   0.00219   0.00000   0.00484   0.00474   2.11883
   A33        2.08590  -0.00013   0.00000   0.00344   0.00349   2.08939
   A34        2.08319  -0.00206   0.00000  -0.00828  -0.00823   2.07496
   A35        2.11403   0.00081   0.00000   0.00142   0.00139   2.11542
   A36        2.08615  -0.00016   0.00000   0.00076   0.00078   2.08692
   A37        2.08301  -0.00065   0.00000  -0.00218  -0.00216   2.08085
   A38        2.10906  -0.00071   0.00000  -0.00546  -0.00548   2.10358
   A39        2.08975   0.00115   0.00000   0.00756   0.00757   2.09732
   A40        2.08437  -0.00044   0.00000  -0.00210  -0.00209   2.08228
    D1        3.14131   0.00001   0.00000   0.00036   0.00036  -3.14152
    D2        0.00026  -0.00001   0.00000  -0.00025  -0.00025   0.00001
    D3        0.00008   0.00000   0.00000   0.00001   0.00001   0.00009
    D4       -3.14092  -0.00001   0.00000  -0.00035  -0.00035  -3.14127
    D5       -3.14152   0.00000   0.00000   0.00004   0.00003  -3.14149
    D6        0.00067  -0.00001   0.00000  -0.00033  -0.00033   0.00035
    D7       -0.00007   0.00000   0.00000   0.00012   0.00013   0.00006
    D8        3.14116   0.00001   0.00000   0.00033   0.00033   3.14149
    D9        3.14152   0.00000   0.00000   0.00010   0.00011  -3.14156
   D10       -0.00043   0.00001   0.00000   0.00031   0.00031  -0.00013
   D11       -3.14127  -0.00001   0.00000  -0.00029  -0.00030  -3.14156
   D12        0.00011  -0.00000   0.00000  -0.00007  -0.00007   0.00003
   D13        0.00032  -0.00001   0.00000  -0.00027  -0.00027   0.00005
   D14       -3.14148  -0.00000   0.00000  -0.00005  -0.00005  -3.14154
   D15       -0.00005  -0.00000   0.00000  -0.00014  -0.00014  -0.00019
   D16       -3.14114  -0.00001   0.00000  -0.00030  -0.00030  -3.14144
   D17        3.14103   0.00000   0.00000   0.00017   0.00017   3.14119
   D18       -0.00006  -0.00000   0.00000   0.00001   0.00001  -0.00005
   D19        3.14110   0.00001   0.00000   0.00031   0.00031   3.14141
   D20       -0.00043   0.00001   0.00000   0.00024   0.00024  -0.00019
   D21        0.00015  -0.00000   0.00000  -0.00008  -0.00008   0.00007
   D22       -3.14137  -0.00000   0.00000  -0.00015  -0.00015  -3.14152
   D23        3.14125   0.00001   0.00000   0.00053   0.00054  -3.14139
   D24        0.00004  -0.00000   0.00000  -0.00021  -0.00021  -0.00017
   D25        0.00005   0.00000   0.00000   0.00033   0.00033   0.00038
   D26       -3.14116  -0.00001   0.00000  -0.00041  -0.00042  -3.14158
   D27       -3.14088  -0.00002   0.00000  -0.00064  -0.00063  -3.14152
   D28        0.00018  -0.00000   0.00000  -0.00005  -0.00005   0.00013
   D29        0.00026  -0.00001   0.00000  -0.00039  -0.00039  -0.00012
   D30        3.14133   0.00001   0.00000   0.00020   0.00020   3.14153
   D31       -3.14121  -0.00001   0.00000  -0.00052  -0.00052   3.14146
   D32        0.00000   0.00000   0.00000   0.00022   0.00022   0.00022
   D33       -0.00016  -0.00001   0.00000  -0.00036  -0.00036  -0.00052
   D34        3.14106   0.00001   0.00000   0.00038   0.00038   3.14143
   D35       -0.00019   0.00001   0.00000   0.00019   0.00018  -0.00000
   D36        3.14150   0.00000   0.00000   0.00004   0.00004   3.14153
   D37       -3.14116  -0.00000   0.00000  -0.00001  -0.00001  -3.14117
   D38        0.00052  -0.00000   0.00000  -0.00016  -0.00016   0.00036
   D39        3.14124   0.00001   0.00000   0.00033   0.00034   3.14158
   D40       -0.00041   0.00001   0.00000   0.00038   0.00039  -0.00002
   D41        0.00016  -0.00001   0.00000  -0.00024  -0.00024  -0.00007
   D42       -3.14148  -0.00000   0.00000  -0.00019  -0.00019   3.14151
   D43        0.00001   0.00000   0.00000   0.00001   0.00000   0.00001
   D44        3.14139   0.00001   0.00000   0.00023   0.00023  -3.14157
   D45       -3.14137  -0.00000   0.00000  -0.00021  -0.00021  -3.14159
   D46        0.00001   0.00000   0.00000   0.00001   0.00001   0.00002
   D47        0.00000  -0.00000   0.00000  -0.00004  -0.00004  -0.00004
   D48        3.14154   0.00000   0.00000   0.00003   0.00003   3.14157
   D49        3.14153   0.00000   0.00000   0.00002   0.00002   3.14155
   D50       -0.00012   0.00000   0.00000   0.00010   0.00010  -0.00002
   D51        0.00034  -0.00001   0.00000  -0.00030  -0.00031   0.00003
   D52       -3.14159  -0.00000   0.00000  -0.00001  -0.00001   3.14158
   D53       -3.14134  -0.00000   0.00000  -0.00016  -0.00016  -3.14150
   D54       -0.00009   0.00000   0.00000   0.00013   0.00013   0.00005
   D55       -0.00026   0.00001   0.00000   0.00026   0.00026   0.00000
   D56        3.14154   0.00000   0.00000   0.00004   0.00004   3.14158
   D57        3.14139   0.00000   0.00000   0.00021   0.00022  -3.14158
   D58        0.00000  -0.00000   0.00000  -0.00001  -0.00001  -0.00001
   D59       -0.00026   0.00001   0.00000   0.00025   0.00025  -0.00001
   D60       -3.14151  -0.00000   0.00000  -0.00004  -0.00004  -3.14156
   D61        3.14139   0.00000   0.00000   0.00017   0.00017   3.14156
   D62        0.00013  -0.00000   0.00000  -0.00012  -0.00012   0.00002
         Item               Value     Threshold  Converged?
 Maximum Force            0.019972     0.000450     NO 
 RMS     Force            0.003801     0.000300     NO 
 Maximum Displacement     0.079932     0.001800     NO 
 RMS     Displacement     0.016479     0.001200     NO 
 Predicted change in Energy=-2.681783D-03
 Lowest energy point so far.  Saving SCF results.
 GradGradGradGradGradGradGradGradGradGradGradGradGradGradGradGradGradGrad

 Leave Link  103 at Tue Dec  5 20:05:25 2023, MaxMem=  2147483648 cpu:              39.7 elap:               1.7
 (Enter /opt/gaussian/g16-c01/g16/l202.exe)
                          Input orientation:                          
 ---------------------------------------------------------------------
 Center     Atomic      Atomic             Coordinates (Angstroms)
 Number     Number       Type             X           Y           Z
 ---------------------------------------------------------------------
      1          8           0       -0.150741   -2.650498    0.000078
      2          8           0       -3.021798   -1.715048    0.000462
      3          6           0       -0.427412    0.874034    0.000051
      4          6           0        1.032570    0.669723    0.000001
      5          6           0       -1.056403   -0.385159    0.000122
      6          6           0        1.295501   -0.707555   -0.000074
      7          6           0       -0.005114   -1.446423    0.000197
[...]
 298,0.00000477,-0.00000721,0.00622256,-0.00000076,0.00000043,0.0063894
 0,0.00000383,0.00000296,-0.00316782,0.00000074,-0.00000051,-0.00025109
 ,0.00000020,0.00000004,-0.00084045,-0.00000770,0.00000373,-0.00036994,
 0.00002643,0.00000381,-0.05976035,-0.00000022,-0.00000002,-0.00027323,
 -0.00000047,-0.00000012,-0.00006044,0.00001568,0.00001240,-0.05565409,
 -0.00005761,-0.00000343,0.13541555,-0.00006522,0.00117958,-0.00000004,
 -0.00063078,0.00007226,0.00000002,0.00062902,-0.00242985,-0.00000117,-
 0.05777700,-0.05214099,-0.00000657,-0.00731845,0.00039659,-0.00000001,
 -0.03004408,0.03615760,-0.00000248,0.00246318,0.00158767,0.00000120,0.
 00524301,-0.00194551,-0.00000088,0.00280212,-0.00095244,-0.00000016,-0
 .30301711,0.10772743,-0.00002624,0.05640947,-0.01408452,0.00000495,-0.
 00052782,0.00377702,0.00000017,-0.00319660,-0.00135776,0.00000035,0.70
 126032,-0.00119065,-0.00048829,-0.00000096,0.00023305,-0.00007352,-0.0
 0000001,-0.00275938,-0.00471263,0.00000012,0.00425966,0.06901224,0.000
 00057,0.00450961,0.00074139,-0.00000066,0.03514643,-0.04535142,0.00000
 539,0.00142710,-0.00270679,0.00000116,-0.00489311,0.00125052,0.0000013
 0,-0.00281860,0.00066276,0.00000029,0.03109369,-0.15280032,0.00000208,
 -0.06966516,-0.04164625,-0.00000702,0.00108765,-0.00379017,-0.00000032
 ,0.00316214,0.00221937,-0.00000028,0.03992187,0.69269208,-0.00000008,0
 .00000016,0.00024269,-0.00000012,0.00000004,-0.00001206,0.00000063,0.0
 0000004,0.00651883,-0.00000727,-0.00000576,0.00673008,-0.00000087,-0.0
 0000024,-0.00039919,-0.00000293,0.00000428,-0.00660356,0.00000028,0.00
 000028,-0.00079049,0.00000064,-0.00000031,0.00019541,0.00000035,-0.000
 00011,-0.00017960,-0.00002826,0.00001201,-0.06120502,0.00000703,-0.000
 00033,0.00609182,0.00000002,0.00000058,-0.00006589,-0.00000056,-0.0000
 0015,0.00008930,0.00006345,-0.00000936,0.13688209,0.00177571,-0.001639
 35,0.00000130,-0.00026851,-0.00022516,0.00000004,-0.00334153,0.0007085
 7,-0.00000003,-0.00496317,-0.02575160,-0.00000042,-0.00380508,-0.00013
 032,0.00000016,-0.05653100,0.00418114,-0.00000973,-0.00259003,0.007750
 52,-0.00000167,0.00238860,0.00002553,-0.00000052,0.00245287,-0.0015679
 2,-0.00000024,0.01707512,0.03473893,0.00000153,-0.24348308,-0.14048311
 ,-0.00001636,-0.00072881,0.00206504,0.00000012,-0.00216241,-0.00149983
 ,0.00000022,-0.13463637,0.07710463,-0.00001097,0.73250342,-0.00071861,
 0.00012807,0.00000052,-0.00070961,0.00000249,0.,-0.00408461,0.00115761
 ,-0.00000094,-0.02355280,-0.07189072,-0.00000203,-0.00650418,0.0021348
 1,0.00000081,-0.05002837,0.06411549,-0.00000376,0.00896594,0.00236482,
 0.00000041,0.00643758,-0.00227784,-0.00000123,0.00448709,-0.00209120,-
 0.00000026,0.09102768,-0.00265257,0.00001104,-0.06402330,-0.21612103,-
 0.00000638,-0.00036252,0.00508208,0.00000016,-0.00464774,-0.00216081,0
 .00000049,-0.00212081,-0.32814172,0.00000976,-0.02764550,0.66298188,0.
 00000049,-0.00000106,-0.00095955,0.00000004,-0.00000007,-0.00008491,-0
 .00000051,-0.00000012,-0.00063215,0.00000136,-0.00000235,-0.00649102,-
 0.00000114,-0.00000014,-0.00081957,-0.00000999,0.00000081,0.00907163,-
 0.00000088,0.00000189,0.00755058,0.00000029,0.00000010,-0.00056862,0.0
 0000042,-0.00000023,0.00003359,0.00000024,0.00000501,0.00645827,-0.000
 01453,-0.00001205,-0.06273189,-0.00000017,0.00000025,0.00029217,-0.000
 00024,-0.00000029,-0.00001673,-0.00000966,0.00001957,-0.06286450,0.000
 06728,-0.00002130,0.13274174,-0.00037749,0.00031547,-0.00000017,0.0003
 7199,-0.00014223,-0.00000006,0.01250078,0.01531071,-0.00000050,0.00017
 421,-0.00094928,-0.00000042,-0.00155515,0.00282401,0.00000101,0.000160
 92,-0.00004352,-0.00000008,0.00093136,0.00053857,0.00000019,-0.0012068
 1,0.00072010,0.00000004,-0.11292660,-0.11303553,0.00000352,0.00024148,
 0.00036966,0.00000004,-0.00003223,-0.00011475,0.,-0.00486474,0.0008510
 9,0.00000078,-0.00821472,-0.02856424,0.00000047,-0.00009433,-0.0001434
 2,-0.00000002,0.00004907,-0.00001510,0.00000001,0.11492633,0.00072934,
 -0.00073983,0.00000016,-0.00018211,0.00001059,0.,-0.01398205,-0.018217
 24,0.00000086,-0.00101272,0.00104598,0.00000011,0.00393081,-0.00199408
 ,-0.00000114,0.00043613,-0.00017725,0.,-0.00208737,-0.00015320,0.00000
 019,0.00096413,0.00006800,-0.00000014,-0.11453324,-0.28944886,0.000005
 02,0.00035002,-0.00049284,-0.00000002,-0.00020936,0.00009284,0.0000000
 1,0.00023108,0.00166062,-0.00000003,0.00210476,0.00219276,-0.00000026,
 0.00027691,0.00023815,0.00000004,0.00002296,0.00018703,0.,0.12286679,0
 .30483467,-0.00000004,-0.00000001,-0.00035961,-0.00000025,-0.00000050,
 -0.00089662,-0.00000110,-0.00000207,0.00201309,0.00000045,-0.00000028,
 -0.00373231,0.00000039,0.00000021,0.00719861,0.00000022,0.00000010,-0.
 00005785,0.00000036,0.00000018,0.00064478,-0.00000051,0.00000069,-0.00
 035577,0.00000206,0.00000453,-0.03370797,-0.00000009,-0.00000008,-0.00
 009683,-0.00000012,0.,0.00009709,0.00000132,-0.00000099,0.00635813,0.0
 0000233,0.00000306,0.00217996,0.00000005,-0.00000008,-0.00019061,0.000
 00005,0.00000008,0.00004535,-0.00000472,-0.00000490,0.02380559,-0.0006
 7366,-0.00038449,0.00000022,0.00011200,0.00019786,0.00000001,0.0007729
 8,0.00088441,0.00000056,0.00999495,-0.02323903,0.00000063,0.00009393,0
 .00007648,0.00000004,-0.00351242,-0.00275468,-0.00000172,0.00124637,-0
 .00101028,-0.00000011,-0.00006182,-0.00010231,0.,-0.00001732,-0.000425
 69,-0.00000006,-0.06559818,0.04515559,-0.00000173,-0.00118184,-0.00029
 696,0.00000002,0.00006075,0.00010675,-0.00000003,-0.00009752,0.0002240
 6,0.00000007,0.00036563,0.02913254,-0.00000023,-0.00492580,0.00122628,
 -0.00000107,-0.00067669,0.00042859,-0.00000005,0.06312948,-0.00073083,
 -0.00050683,0.00000014,-0.00004383,0.00004678,0.00000001,0.00113236,0.
 00029016,0.,0.00576295,-0.01546515,0.00000069,-0.00052131,0.00006632,0
 .00000007,-0.00381893,-0.00021299,-0.00000100,0.00176550,-0.00050625,0
 .00000015,0.00023392,-0.00005698,-0.00000002,-0.00061312,-0.00018021,0
 .00000002,0.04672753,-0.33472329,0.00000240,-0.00035850,0.00045801,-0.
 00000009,0.00000489,0.00013979,0.,-0.00012532,0.00029180,0.00000002,-0
 .00138791,-0.00613976,-0.00000017,0.00183451,0.00148272,0.00000018,-0.
 00014534,0.00036333,0.,-0.04993688,0.35445904,0.,0.,-0.00033767,0.,0.0
 0000004,-0.00000688,-0.00000053,-0.00000003,-0.00368355,0.00000049,-0.
 00000311,0.00320451,-0.00000014,0.00000016,-0.00003430,-0.00000069,0.0
 0000043,0.00774201,-0.00000026,0.00000022,0.00038933,0.00000011,-0.000
 00007,0.00018661,0.00000006,-0.00000017,-0.00011801,-0.00000046,0.0000
 0166,-0.03703730,0.00000064,-0.00000016,-0.00085786,-0.00000001,0.0000
 0011,0.00000635,-0.00000008,-0.00000004,-0.00017225,-0.00000131,0.0000
 0377,0.00358128,-0.00000164,-0.00000037,0.00701096,-0.00000001,0.00000
 002,0.00048437,0.00000313,-0.00000246,0.02468152,0.00108871,-0.0017510
 8,0.00000050,-0.00000861,-0.00004018,-0.00000002,0.00019694,0.00160966
 ,-0.00000012,-0.00473239,0.00107035,-0.00000166,0.00032713,-0.00033819
 ,-0.00000005,0.00144454,0.02954957,0.00000036,0.00091808,0.00185337,0.
 00000006,-0.00008753,-0.00000562,0.,-0.00040269,-0.00023252,0.00000005
 ,-0.00121203,-0.00029488,-0.00000010,-0.06578992,0.04611490,-0.0000033
 8,-0.00004470,-0.00005655,0.,-0.00000259,0.00009787,0.00000002,-0.0032
 0345,-0.00313273,-0.00000118,0.00883672,-0.02305603,0.00000022,0.00002
 357,-0.00001310,0.,0.00010888,0.00005334,0.00000019,0.06151396,0.00054
 175,0.00123037,-0.00000045,0.00007409,0.00010017,-0.00000002,-0.000045
 68,-0.00052102,0.00000005,0.00124636,0.00138569,0.00000013,0.00021581,
 0.00004002,-0.00000002,0.00197684,-0.00693738,0.00000089,-0.00118521,-
 0.00154655,-0.00000005,-0.00010890,-0.00013926,0.00000007,0.00011109,0
 .00004932,-0.00000006,-0.00028349,0.00051781,-0.00000011,0.04531796,-0
 .33831219,0.00000361,0.00005156,0.00000512,-0.00000004,0.00001613,-0.0
 0003151,0.00000002,-0.00316906,-0.00035670,-0.00000033,0.00614608,-0.0
 1212149,0.00000039,-0.00000744,-0.00000747,0.,0.00000620,-0.00008516,0
 .,-0.05108426,0.35666545,0.00000009,0.00000042,0.00017133,-0.00000002,
 0.,0.00000754,-0.00000012,0.00000053,0.00025715,-0.00000221,0.00000091
 ,0.00799898,0.00000039,0.00000007,0.00057567,0.00000240,0.00000251,0.0
 0377254,0.00000009,-0.00000025,-0.00445531,0.,-0.00000003,0.00003543,-
 0.00000020,0.00000002,-0.00043565,-0.00000097,-0.00000068,-0.00085587,
 -0.00000593,0.00000287,-0.03983267,0.,-0.00000008,-0.00006998,0.000000
 07,0.00000007,-0.00004832,-0.00000023,-0.00000118,0.00707581,0.0000016
 0,-0.00000089,0.00454455,0.,0.,0.00002638,0.00000008,0.,-0.00118381,0.
 00000433,-0.00000426,0.02643971,0.00003056,0.00076517,-0.00000022,0.00
 349008,0.00018671,-0.00000064,0.00072076,0.00030253,-0.00000020,-0.000
 02432,0.00001474,0.00000002,-0.00065215,0.00377226,0.00000101,-0.00036
 747,0.00029510,0.00000003,0.00013691,-0.00162358,-0.00000003,-0.014856
 37,-0.00745410,0.00000193,0.00122637,-0.00244578,0.00000056,-0.0000381
 1,-0.00000431,-0.00000001,0.00000753,-0.00011635,-0.00000002,-0.337111
 19,-0.01221177,0.00003241,-0.00982111,0.00193365,0.00000111,-0.0000125
 4,0.00000060,0.,-0.00005147,-0.00000093,-0.00000002,-0.00055094,0.0001
 0771,0.00000011,0.00002391,-0.00000023,0.00000001,0.00000358,0.0000149
 3,0.,0.35788508,-0.00015756,-0.00023661,0.00000014,0.00106926,0.003183
 91,-0.00000009,0.00005393,-0.00181244,-0.00000004,0.00012983,0.0001115
 0,-0.00000009,0.00296655,-0.00402427,-0.00000088,0.00041100,-0.0003434
 3,0.00000008,0.00057092,0.00109134,-0.00000003,0.02500218,0.00375464,-
 0.00000261,-0.00205479,-0.00424687,0.00000049,-0.00009777,-0.00003980,
 0.00000004,-0.00006399,0.00013502,-0.00000004,-0.01185029,-0.05741695,
 0.00000245,-0.02860498,0.00299513,0.00000307,0.00010145,-0.00003437,0.
 ,0.00004367,0.00008962,0.00000001,-0.00131256,-0.00002355,0.00000011,0
 .00004056,0.00003173,0.,-0.00001408,-0.00000274,0.,0.01449970,0.056375
 59,-0.00000005,-0.00000006,0.00001666,-0.00000041,0.00000051,-0.003514
 90,-0.00000041,0.,-0.00074287,0.,0.00000002,-0.00032655,0.00000080,-0.
 00000036,0.00408146,0.00000007,0.,0.00011692,0.,-0.00000006,0.00038143
 ,0.00000124,0.00000009,0.00369277,0.00000014,0.00000046,0.00681609,-0.
 00000001,-0.00000003,0.00003194,0.00000001,0.,-0.00027976,0.00003246,0
 .00000207,-0.03083837,0.00000220,0.00000024,0.00226698,0.00000002,-0.0
 0000003,-0.00008680,0.00000004,0.00000001,-0.00001356,0.00000023,-0.00
 000004,0.00034309,0.,0.,0.00004166,0.,0.,0.00000300,-0.00003569,-0.000
 00254,0.02187169,0.00005905,0.00008378,-0.00000003,0.00044877,-0.00058
 711,-0.00000015,-0.00592153,-0.00084482,0.00000088,0.00018320,0.001194
 99,0.00000017,-0.00035649,-0.00111523,0.00000002,-0.00048729,0.0000390
 9,-0.00000007,-0.00024356,0.00000880,-0.00000004,-0.00060496,-0.003286
 01,0.00000100,-0.01060799,0.02638486,0.00000169,0.00000735,0.00010837,
 0.00000001,0.00009269,0.00014272,0.00000002,0.01060100,-0.01303789,-0.
 00000033,-0.14852104,0.13368551,0.00001152,-0.00004221,-0.00000423,-0.
 00000003,-0.00005255,-0.00003217,0.,0.00110476,-0.00043926,-0.00000047
 ,0.00000043,-0.00003769,0.,-0.00005169,0.00001894,0.,0.00071514,0.0004
 8094,-0.00000063,0.15365406,0.00004306,-0.00013299,0.00000003,0.000528
 35,-0.00160140,-0.00000007,-0.00098206,0.00158677,0.00000007,-0.000261
 75,0.00019365,-0.00000003,-0.00077840,-0.00001855,-0.00000003,-0.00003
 876,-0.00002133,0.00000007,-0.00007463,0.00016036,-0.00000002,-0.00327
 453,-0.00258467,0.00000045,-0.00338036,0.00545507,0.00000033,0.0001153
 1,-0.00000579,0.00000003,0.00007472,0.00004512,-0.00000003,0.01714487,
 -0.01747585,-0.00000166,0.13320736,-0.25492505,-0.00001376,-0.00004906
 ,0.00003909,-0.00000003,0.00000408,-0.00006887,0.00000002,0.00050084,0
 .00052619,-0.00000005,-0.00001500,-0.00000415,0.,-0.00000388,-0.000003
 48,0.,-0.00022359,0.00094797,0.,-0.14280448,0.26773735,0.00000001,0.,0
 .00011931,-0.00000026,0.00000032,-0.00048253,0.00000092,-0.00000064,0.
 00621162,0.00000012,-0.00000029,0.00008800,-0.00000003,0.00000013,-0.0
 0104024,0.00000013,0.00000013,0.00000063,-0.00000013,-0.00000005,-0.00
 070841,0.00000199,-0.00000004,0.00781584,0.00000079,-0.00000249,0.0047
 1753,-0.00000005,0.00000002,-0.00001544,0.,-0.00000004,-0.00008428,-0.
 00000083,0.00000315,0.00422841,0.00001174,-0.00001478,-0.03859617,0.,0
 .,0.00001499,0.,0.,-0.00004806,-0.00000034,0.00000010,-0.00381350,0.,0
 .00000001,0.00003001,0.,0.,0.00008347,-0.00000044,-0.00000021,-0.00440
 667,-0.00001360,0.00001469,0.02578569,0.00000178,-0.00019342,0.0000000
 4,-0.00013753,-0.00011924,0.00000001,-0.00004539,-0.00113196,-0.000000
 19,-0.00451102,0.00277693,-0.00000106,-0.00046275,0.00005977,0.0000000
 5,-0.00004539,0.00107090,-0.00000002,-0.00011574,0.00017919,0.00000008
 ,0.00015405,-0.00000299,0.,-0.00009557,-0.00006581,0.,-0.01637807,-0.0
 2018855,-0.00000213,0.00113272,0.00175262,-0.00000078,-0.00006465,-0.0
 0001375,0.,0.00001349,0.00004773,0.00000002,-0.22734182,-0.14116424,-0
 .00001945,0.00753532,0.00586127,0.,0.00001449,0.00002742,-0.00000001,0
 .00101247,0.00029323,0.00000054,0.00023104,0.00030477,0.00000006,-0.00
 001548,-0.00000370,0.,-0.00003563,0.00000989,0.,0.23849857,-0.00012445
 ,0.00002419,0.,-0.00000626,-0.00004195,0.,0.00038970,0.00042582,0.0000
 0006,0.00290461,0.00046157,0.00000033,0.00011683,-0.00005040,0.0000000
 5,0.00120610,-0.00058139,0.00000003,0.00008430,-0.00006165,-0.00000003
 ,-0.00005754,0.00014305,-0.00000004,-0.00012393,0.00006774,0.00000002,
 0.01011782,0.01015468,0.00000110,0.00175707,-0.00517408,0.00000052,-0.
 00001475,-0.00008593,0.00000003,0.00008608,0.00002477,-0.00000003,-0.1
 4108039,-0.17534922,-0.00001399,-0.02486371,-0.01363374,-0.00000231,0.
 00000951,-0.00001664,0.,-0.00063780,0.00066573,-0.00000013,-0.00112659
 ,-0.00066315,-0.00000012,-0.00000579,-0.00000216,0.,0.00000226,0.00000
 359,0.,0.15097726,0.18269825,-0.00000004,0.00000005,0.00014818,-0.0000
 0004,-0.00000005,0.00004308,-0.00000014,-0.00000025,0.00036460,-0.0000
 0125,-0.00000026,0.00670426,-0.00000012,0.00000016,-0.00008937,0.00000
 020,-0.00000002,-0.00077639,0.00000012,-0.00000012,-0.00094830,0.,0.00
 000003,-0.00012443,-0.00000001,0.00000001,-0.00003870,-0.00000187,-0.0
 0000241,0.00431543,-0.00000186,0.00000056,0.00698998,0.,-0.00000005,-0
 .00003207,0.00000005,0.00000002,0.00001751,-0.00001978,-0.00001484,-0.
 03841086,0.00000146,0.00000262,0.00433611,0.,0.00000001,0.00002706,0.0
 0000044,0.00000005,-0.00402679,0.00000020,0.00000014,-0.00010674,0.,0.
 ,0.00000438,0.,0.,-0.00000957,0.00002220,0.00001459,0.02580681,-0.0001
 2136,-0.00058026,0.00000019,-0.00010285,-0.00013710,0.,-0.00003048,-0.
 00004953,0.00000006,0.00048474,-0.00061438,0.00000014,-0.00056258,-0.0
 0013750,0.00000003,-0.00234587,-0.00397855,-0.00000144,0.00034881,0.00
 144861,-0.00000007,0.00014703,0.00026820,0.00000003,-0.00008880,0.0000
 4314,0.00000002,0.00161729,0.00064387,-0.00000043,-0.01645308,0.010103
 77,-0.00000256,-0.00004182,-0.00003936,0.,0.00002622,0.00004970,0.,-0.
 00125927,-0.00129525,-0.00000045,-0.31508803,0.08947405,-0.00003211,0.
 00000865,0.00000551,-0.00000001,-0.00015750,-0.00008764,-0.00000004,0.
 00085473,-0.00014889,0.00000058,-0.00002560,0.00001135,0.,-0.00001009,
 0.00000789,0.,0.00064540,0.00037765,0.00000043,0.33213213,0.00006156,-
 0.00020519,0.00000014,0.00000650,0.00001413,0.,-0.00009087,0.00008088,
 -0.00000002,-0.00074206,-0.00131411,-0.00000010,-0.00042028,-0.0001019
 7,0.00000003,-0.00375040,-0.00212783,-0.00000066,-0.00038576,0.0009250
 1,-0.00000022,0.00009873,0.00007150,0.00000003,0.00006655,-0.00006180,
 0.,0.00043557,-0.00521318,0.00000046,-0.02011397,0.01048329,-0.0000024
 4,-0.00002476,0.00008904,-0.00000002,-0.00009916,-0.00001447,0.0000000
 2,0.02959227,-0.00524530,0.00000362,0.08912299,-0.08849737,0.00001165,
 -0.00003119,0.00004138,0.,0.00134066,-0.00041172,0.00000014,0.00081133
 ,0.00074917,0.00000008,-0.00000539,0.00001606,0.,0.00000146,-0.0000026
 3,0.,-0.00048856,0.00097758,-0.00000026,-0.09538486,0.08974770,0.00000
 003,-0.00000005,0.00002845,0.,-0.00000002,-0.00001510,0.00000009,0.,-0
 .00076723,0.00000036,0.00000003,-0.00082300,-0.00000008,-0.00000002,0.
 00009328,-0.00000091,-0.00000025,0.00651085,-0.00000003,-0.00000007,0.
 00047421,-0.00000005,0.00000004,-0.00031498,-0.00000002,0.,0.00003736,
 -0.00000032,0.00000045,0.00698187,-0.00000184,0.00000067,0.00389637,-0
 .00000002,0.,0.00001359,0.,0.,-0.00006739,-0.00000171,0.00000053,0.003
 46351,-0.00003220,0.00001123,-0.03697925,0.,0.,0.00003532,-0.00000018,
 0.,0.00010108,0.00000059,0.00000001,-0.00401677,0.,0.,0.00009123,0.,0.
 ,0.00000733,0.00000065,-0.00000009,-0.00422358,0.00003563,-0.00001245,
 0.02546137,-0.00010148,-0.00071273,0.00000013,-0.52623191,0.02949115,0
 .00004564,-0.00097116,0.00105778,0.00000011,-0.00015123,-0.00018793,0.
 00000004,0.00352815,-0.00350457,-0.00000030,0.00010504,-0.00004235,0.0
 0000005,-0.00085242,0.00143985,0.,-0.02389047,-0.00012069,0.00000202,0
 .00123381,0.00006505,-0.00000003,0.00002893,0.00003393,-0.00000005,-0.
 00005974,0.00006285,-0.00000001,0.00567947,0.00533945,-0.00000051,-0.0
 0179093,-0.00036525,0.00000007,-0.00000568,-0.00001219,0.00000002,0.00
 001100,0.00002236,-0.00000002,-0.00000792,-0.00002295,0.00000002,-0.00
 001902,-0.00000069,0.,-0.00001227,-0.00000959,0.,-0.00071318,-0.001221
 62,0.,0.00006859,0.00025010,-0.00000002,0.00000971,0.00001203,0.,0.000
 02233,-0.00000040,0.,0.54412038,0.00093686,0.00006672,-0.00000018,0.07
 982946,-0.04622589,-0.00000797,-0.00113167,0.00118838,0.00000029,-0.00
 031937,-0.00032617,0.00000001,-0.00184831,-0.00615584,-0.00000039,0.00
 011852,-0.00003036,-0.00000003,-0.00030542,-0.00057386,0.00000042,-0.0
 4608521,-0.00145227,0.00000453,0.00080036,-0.00026019,-0.00000018,0.00
 005105,0.00002685,0.,0.00003199,0.00010480,-0.00000007,-0.00265653,0.0
 0212706,0.00000032,-0.00027059,-0.00058212,0.00000013,-0.00007234,-0.0
 0001913,-0.00000002,0.00005783,-0.00006926,0.00000004,0.00019784,0.000
 00943,0.,-0.00001686,-0.00000290,0.,-0.00001071,-0.00001500,0.,0.00219
 872,-0.00054930,-0.00000026,0.00003718,0.00014961,-0.00000004,0.000011
 23,0.00001334,0.,0.00001957,-0.00000016,0.,-0.03157359,0.05257627,-0.0
 0000016,0.00000023,0.00013551,0.00004612,-0.00000374,-0.00426807,0.000
 00039,-0.00000026,0.00157971,0.00000007,0.00000018,-0.00011454,-0.0000
 0060,-0.00000020,0.00265883,0.00000015,0.00000006,-0.00012575,0.000000
 22,-0.00000013,-0.00057008,0.00000162,0.00000117,-0.00244295,-0.000000
 11,-0.00000008,0.00030600,0.,-0.00000002,-0.00005101,-0.00000002,-0.00
 000004,-0.00019575,-0.00000070,-0.00000073,-0.00079933,0.00000006,0.00
 000004,-0.00126930,0.00000004,-0.00000004,-0.00007723,-0.00000001,0.00
 000004,0.00012485,0.,0.,-0.00004777,0.,0.,-0.00000127,0.,0.,0.00001356
 ,0.00000009,0.00000012,0.00045019,0.00000002,-0.00000002,0.00010204,0.
 ,0.,0.00002940,0.,0.,0.00001145,-0.00004717,0.00000340,0.00455152\\0.0
 0002838,0.00013583,0.00003646,0.00006129,0.00006750,-0.00000030,-0.000
 06522,0.00009059,0.00000065,0.00011377,0.00000808,0.00000037,-0.000005
 94,-0.00000252,0.00003506,-0.00001436,-0.00007882,0.00003437,-0.000036
 04,-0.00016129,-0.00010808,-0.00001191,-0.00009720,0.00000774,0.000077
 38,0.00000555,-0.00000396,-0.00007306,0.00001460,-0.00000402,-0.000039
 88,0.00006100,0.00000773,-0.00009627,0.00003946,-0.00000216,0.00000502
 ,-0.00006454,-0.00000185,0.00002653,-0.00004283,-0.00000056,0.00006035
 ,0.00003786,-0.00000246,-0.00001300,-0.00001015,0.00000042,-0.00002286
 ,-0.00000484,0.00000043,-0.00000247,-0.00001876,-0.00000049,0.00002457
 ,-0.00001677,-0.00000043,-0.00001666,0.00003241,0.00000113,0.00000357,
 0.00003281,0.00000102,-0.00001305,-0.00001766,-0.00000094,0.00000987,-
 0.00001032,-0.00000014\\\@
 The archive entry for this job was punched.


 The hours that make us happy make us wise.
                         -- John Masefield
 Job cpu time:       0 days  4 hours  5 minutes 25.8 seconds.
 Elapsed time:       0 days  0 hours  9 minutes 44.5 seconds.
 File lengths (MBytes):  RWF=    313 Int=      0 D2E=      0 Chk=     13 Scr=      1
 Normal termination of Gaussian 16 at Tue Dec  5 20:19:16 2023.
