 Entering Gaussian System, Link 0=g16
 Input=/home/exlonk/in_progress/3372.inp
 Output=/home/exlonk/in_progress/3372.log
 Initial command:
 /opt/gaussian/g16-c01/g16/l1.exe "/lustre/tmp/slurm/2191186/Gau-1797743.inp" -scrdir="/lustre/tmp/slurm/2191186/"
 Default CPUs for threads: 2-3,7-9,11-13,16-18,21-22,24-28,31-32,36-38,42-44
 Default is to use a total of  26 processors:
                               26 via shared-memory
                                1 via Linda
 Entering Link 1 = /opt/gaussian/g16-c01/g16/l1.exe PID=   1797744.
  
 Copyright (c) 1988-2019, Gaussian, Inc.  All Rights Reserved.
  
 This is part of the Gaussian(R) 16 program.  It is based on
 the Gaussian(R) 09 system (copyright 2009, Gaussian, Inc.),
 the Gaussian(R) 03 system (copyright 2003, Gaussian, Inc.),
 the Gaussian(R) 98 system (copyright 1998, Gaussian, Inc.),
 the Gaussian(R) 94 system (copyright 1995, Gaussian, Inc.),
 the Gaussian 92(TM) system (copyright 1992, Gaussian, Inc.),
 the Gaussian 90(TM) system (copyright 1990, Gaussian, Inc.),
 the Gaussian 88(TM) system (copyright 1988, Gaussian, Inc.),
 the Gaussian 86(TM) system (copyright 1986, Carnegie Mellon
 University), and the Gaussian 82(TM) system (copyright 1983,
 Carnegie Mellon University). Gaussian is a federally registered
 trademark of Gaussian, Inc.
  
 This software contains proprietary and confidential information,
 including trade secrets, belonging to Gaussian, Inc.
  
 This software is provided under written license and may be
 used, copied, transmitted, or stored only in accord with that
 written license.
  
 The following legend is applicable only to US Government
 contracts under FAR:
  
                    RESTRICTED RIGHTS LEGEND
  
 Use, reproduction and disclosure by the US Government is
 subject to restrictions as set forth in subparagraphs (a)
 and (c) of the Commercial Computer Software - Restricted
 Rights clause in FAR 52.227-19.
  
 Gaussian, Inc.
 340 Quinnipiac St., Bldg. 40, Wallingford CT 06492
  
  
 ---------------------------------------------------------------
 Warning -- This program may not be used in any manner that
 competes with the business of Gaussian, Inc. or will provide
 assistance to any competitor of Gaussian, Inc.  The licensee
 of this program is prohibited from giving any competitor of
 Gaussian, Inc. access to this program.  By using this program,
 the user acknowledges that Gaussian, Inc. is engaged in the
 business of creating and licensing software in the field of
 computational chemistry and represents and warrants to the
 licensee that it is not a competitor of Gaussian, Inc. and that
 it will not use this program in any manner prohibited above.
 ---------------------------------------------------------------
  

 Cite this work as:
 Gaussian 16, Revision C.01,
 M. J. Frisch, G. W. Trucks, H. B. Schlegel, G. E. Scuseria, 
 M. A. Robb, J. R. Cheeseman, G. Scalmani, V. Barone, 
 G. A. Petersson, H. Nakatsuji, X. Li, M. Caricato, A. V. Marenich, 
 J. Bloino, B. G. Janesko, R. Gomperts, B. Mennucci, H. P. Hratchian, 
 J. V. Ortiz, A. F. Izmaylov, J. L. Sonnenberg, D. Williams-Young, 
 F. Ding, F. Lipparini, F. Egidi, J. Goings, B. Peng, A. Petrone, 
 T. Henderson, D. Ranasinghe, V. G. Zakrzewski, J. Gao, N. Rega, 
 G. Zheng, W. Liang, M. Hada, M. Ehara, K. Toyota, R. Fukuda, 
 J. Hasegawa, M. Ishida, T. Nakajima, Y. Honda, O. Kitao, H. Nakai, 
 T. Vreven, K. Throssell, J. A. Montgomery, Jr., J. E. Peralta, 
 F. Ogliaro, M. J. Bearpark, J. J. Heyd, E. N. Brothers, K. N. Kudin, 
 V. N. Staroverov, T. A. Keith, R. Kobayashi, J. Normand, 
 K. Raghavachari, A. P. Rendell, J. C. Burant, S. S. Iyengar, 
 J. Tomasi, M. Cossi, J. M. Millam, M. Klene, C. Adamo, R. Cammi, 
 J. W. Ochterski, R. L. Martin, K. Morokuma, O. Farkas, 
 J. B. Foresman, and D. J. Fox, Gaussian, Inc., Wallingford CT, 2019.
 
 ******************************************
 Gaussian 16:  EM64L-G16RevC.01  3-Jul-2019
                 7-Dec-2023 
 ******************************************
 %nproc=26
 Will use up to   26 processors via shared memory.
 %mem=16GB
 %chk=/home/exlonk/in_progress/3372.chk
 ------------------------------
 #p MN15/6-311++G(d,p) opt freq
 ------------------------------
 1/18=20,19=15,26=3,38=1/1,3;
 2/9=110,12=2,17=6,18=5,40=1/2;
 3/5=4,6=6,7=1111,11=2,25=1,30=1,71=1,74=-73/1,2,3;
 4//1;
 5/5=2,38=5/2;
 6/7=2,8=2,9=2,10=2,28=1/1;
 7//1,2,3,16;
 1/18=20,19=15,26=3/3(2);
 2/9=110/2;
 99//99;
 2/9=110/2;
 3/5=4,6=6,7=1111,11=2,25=1,30=1,71=1,74=-73/1,2,3;
 4/5=5,16=3,69=1/1;
 5/5=2,38=5/2;
 7//1,2,3,16;
 1/18=20,19=15,26=3/3(-5);
 2/9=110/2;
 6/7=2,8=2,9=2,10=2,19=2,28=1/1;
 99/9=1/99;
 Leave Link    1 at Thu Dec  7 12:36:14 2023, MaxMem=  2147483648 cpu:               7.3 elap:               0.4
 (Enter /opt/gaussian/g16-c01/g16/l101.exe)
 ---------------
 name file: 3372
 ---------------
 Symbolic Z-matrix:
 Charge =  0 Multiplicity = 1
 O                    -2.9145   -1.2831    0.0007 
 O                    -0.1818   -2.4946   -0.0012 
 C                    -0.0115    1.002     0.0003 
 C                     1.3873    0.6316    0.0002 
 C                    -0.797    -0.1637    0.0004 
 C                     1.493    -0.7701    0.0002 
 C                     0.1217   -1.3217    0.0004 
 C                    -2.1771   -0.1474    0. 
 C                    -0.6273    2.2411   -0.0001 
 C                     2.5356    1.4036    0.0001 
 C                     2.7003   -1.4389    0. 
 C                    -2.7932    1.104    -0.0005 
 C                    -2.0271    2.2857   -0.0004 
 C                     3.774     0.7496   -0.0001 
 C                     3.855    -0.6563   -0.0001 
 C                    -4.3374   -1.1417    0.0001 
 H                    -0.0535    3.1618   -0.0003 
 H                     2.4926    2.4875    0.0002 
 H                     2.7577   -2.5208    0. 
 H                    -3.8703    1.2384   -0.0007 
 H                    -2.5314    3.2489   -0.0007 
 H                     4.6895    1.336    -0.0002 
 H                     4.8307   -1.1351   -0.0002 
 H                    -4.6899   -0.6419    0.9087 
 H                    -4.7629   -2.1504    0.0005 
 H                    -4.6893   -0.6428   -0.9092 
 
 ITRead=  0  0  0  0  0  0  0  0  0  0  0  0  0  0  0  0  0  0  0  0
 ITRead=  0  0  0  0  0  0
 MicOpt= -1 -1 -1 -1 -1 -1 -1 -1 -1 -1 -1 -1 -1 -1 -1 -1 -1 -1 -1 -1
 MicOpt= -1 -1 -1 -1 -1 -1
 NAtoms=     26 NQM=       26 NQMF=       0 NMMI=      0 NMMIF=      0
                NMic=       0 NMicF=      0.
                    Isotopes and Nuclear Properties:
 (Nuclear quadrupole moments (NQMom) in fm**2, nuclear magnetic moments (NMagM)
  in nuclear magnetons)

  Atom         1           2           3           4           5           6           7           8           9          10
 IAtWgt=          16          16          12          12          12          12          12          12          12          12
 AtmWgt=  15.9949146  15.9949146  12.0000000  12.0000000  12.0000000  12.0000000  12.0000000  12.0000000  12.0000000  12.0000000
 NucSpn=           0           0           0           0           0           0           0           0           0           0
 AtZEff=  -0.0000000  -0.0000000  -0.0000000  -0.0000000  -0.0000000  -0.0000000  -0.0000000  -0.0000000  -0.0000000  -0.0000000
 NQMom=    0.0000000   0.0000000   0.0000000   0.0000000   0.0000000   0.0000000   0.0000000   0.0000000   0.0000000   0.0000000
 NMagM=    0.0000000   0.0000000   0.0000000   0.0000000   0.0000000   0.0000000   0.0000000   0.0000000   0.0000000   0.0000000
 AtZNuc=   8.0000000   8.0000000   6.0000000   6.0000000   6.0000000   6.0000000   6.0000000   6.0000000   6.0000000   6.0000000

  Atom        11          12          13          14          15          16          17          18          19          20
 IAtWgt=          12          12          12          12          12          12           1           1           1           1
 AtmWgt=  12.0000000  12.0000000  12.0000000  12.0000000  12.0000000  12.0000000   1.0078250   1.0078250   1.0078250   1.0078250
 NucSpn=           0           0           0           0           0           0           1           1           1           1
 AtZEff=  -0.0000000  -0.0000000  -0.0000000  -0.0000000  -0.0000000  -0.0000000  -0.0000000  -0.0000000  -0.0000000  -0.0000000
 NQMom=    0.0000000   0.0000000   0.0000000   0.0000000   0.0000000   0.0000000   0.0000000   0.0000000   0.0000000   0.0000000
 NMagM=    0.0000000   0.0000000   0.0000000   0.0000000   0.0000000   0.0000000   2.7928460   2.7928460   2.7928460   2.7928460
 AtZNuc=   6.0000000   6.0000000   6.0000000   6.0000000   6.0000000   6.0000000   1.0000000   1.0000000   1.0000000   1.0000000

  Atom        21          22          23          24          25          26
 IAtWgt=           1           1           1           1           1           1
 AtmWgt=   1.0078250   1.0078250   1.0078250   1.0078250   1.0078250   1.0078250
 NucSpn=           1           1           1           1           1           1
 AtZEff=  -0.0000000  -0.0000000  -0.0000000  -0.0000000  -0.0000000  -0.0000000
 NQMom=    0.0000000   0.0000000   0.0000000   0.0000000   0.0000000   0.0000000
 NMagM=    2.7928460   2.7928460   2.7928460   2.7928460   2.7928460   2.7928460
 AtZNuc=   1.0000000   1.0000000   1.0000000   1.0000000   1.0000000   1.0000000
 Leave Link  101 at Thu Dec  7 12:36:14 2023, MaxMem=  2147483648 cpu:               8.9 elap:               0.6
 (Enter /opt/gaussian/g16-c01/g16/l103.exe)

 GradGradGradGradGradGradGradGradGradGradGradGradGradGradGradGradGradGrad
 Berny optimization.
 Initialization pass.
                           ----------------------------
                           !    Initial Parameters    !
                           ! (Angstroms and Degrees)  !
 --------------------------                            --------------------------
 ! Name  Definition              Value          Derivative Info.                !
 --------------------------------------------------------------------------------
 ! R1    R(1,8)                  1.3541         estimate D2E/DX2                !
 ! R2    R(1,16)                 1.4299         estimate D2E/DX2                !
 ! R3    R(2,7)                  1.2115         estimate D2E/DX2                !
 ! R4    R(3,4)                  1.447          estimate D2E/DX2                !
 ! R5    R(3,5)                  1.4057         estimate D2E/DX2                !
 ! R6    R(3,9)                  1.3837         estimate D2E/DX2                !
 ! R7    R(4,6)                  1.4057         estimate D2E/DX2                !
 ! R8    R(4,10)                 1.3837         estimate D2E/DX2                !
 ! R9    R(5,7)                  1.4782         estimate D2E/DX2                !
 ! R10   R(5,8)                  1.3802         estimate D2E/DX2                !
 ! R11   R(6,7)                  1.4781         estimate D2E/DX2                !
 ! R12   R(6,11)                 1.3802         estimate D2E/DX2                !
 ! R13   R(8,12)                 1.3948         estimate D2E/DX2                !
 ! R14   R(9,13)                 1.4005         estimate D2E/DX2                !
 ! R15   R(9,17)                 1.0849         estimate D2E/DX2                !
 ! R16   R(10,14)                1.4005         estimate D2E/DX2                !
 ! R17   R(10,18)                1.0848         estimate D2E/DX2                !
 ! R18   R(11,15)                1.3949         estimate D2E/DX2                !
 ! R19   R(11,19)                1.0834         estimate D2E/DX2                !
 ! R20   R(12,13)                1.4083         estimate D2E/DX2                !
 ! R21   R(12,20)                1.0855         estimate D2E/DX2                !
 ! R22   R(13,21)                1.0872         estimate D2E/DX2                !
 ! R23   R(14,15)                1.4082         estimate D2E/DX2                !
 ! R24   R(14,22)                1.0872         estimate D2E/DX2                !
 ! R25   R(15,23)                1.0868         estimate D2E/DX2                !
 ! R26   R(16,24)                1.0953         estimate D2E/DX2                !
 ! R27   R(16,25)                1.0948         estimate D2E/DX2                !
 ! R28   R(16,26)                1.0952         estimate D2E/DX2                !
 ! A1    A(8,1,16)             117.3202         estimate D2E/DX2                !
 ! A2    A(4,3,5)              109.1424         estimate D2E/DX2                !
 ! A3    A(4,3,9)              131.2576         estimate D2E/DX2                !
 ! A4    A(5,3,9)              119.6            estimate D2E/DX2                !
 ! A5    A(3,4,6)              109.1439         estimate D2E/DX2                !
 ! A6    A(3,4,10)             131.2557         estimate D2E/DX2                !
 ! A7    A(6,4,10)             119.6004         estimate D2E/DX2                !
 ! A8    A(3,5,7)              107.5994         estimate D2E/DX2                !
 ! A9    A(3,5,8)              123.2971         estimate D2E/DX2                !
 ! A10   A(7,5,8)              129.1034         estimate D2E/DX2                !
 ! A11   A(4,6,7)              107.5998         estimate D2E/DX2                !
 ! A12   A(4,6,11)             123.2973         estimate D2E/DX2                !
 ! A13   A(7,6,11)             129.1029         estimate D2E/DX2                !
 ! A14   A(2,7,5)              127.0655         estimate D2E/DX2                !
 ! A15   A(2,7,6)              126.4199         estimate D2E/DX2                !
 ! A16   A(5,7,6)              106.5145         estimate D2E/DX2                !
 ! A17   A(1,8,5)              122.3186         estimate D2E/DX2                !
 ! A18   A(1,8,12)             120.7924         estimate D2E/DX2                !
 ! A19   A(5,8,12)             116.889          estimate D2E/DX2                !
 ! A20   A(3,9,13)             118.2511         estimate D2E/DX2                !
 ! A21   A(3,9,17)             121.6418         estimate D2E/DX2                !
 ! A22   A(13,9,17)            120.1071         estimate D2E/DX2                !
 ! A23   A(4,10,14)            118.2486         estimate D2E/DX2                !
 ! A24   A(4,10,18)            121.641          estimate D2E/DX2                !
 ! A25   A(14,10,18)           120.1104         estimate D2E/DX2                !
 ! A26   A(6,11,15)            116.8876         estimate D2E/DX2                !
 ! A27   A(6,11,19)            122.0218         estimate D2E/DX2                !
 ! A28   A(15,11,19)           121.0906         estimate D2E/DX2                !
 ! A29   A(8,12,13)            120.8322         estimate D2E/DX2                !
 ! A30   A(8,12,20)            123.3249         estimate D2E/DX2                !
 ! A31   A(13,12,20)           115.8429         estimate D2E/DX2                !
 ! A32   A(9,13,12)            121.1306         estimate D2E/DX2                !
 ! A33   A(9,13,21)            119.46           estimate D2E/DX2                !
 ! A34   A(12,13,21)           119.4094         estimate D2E/DX2                !
 ! A35   A(10,14,15)           121.136          estimate D2E/DX2                !
 ! A36   A(10,14,22)           119.5209         estimate D2E/DX2                !
 ! A37   A(15,14,22)           119.3431         estimate D2E/DX2                !
 ! A38   A(11,15,14)           120.8301         estimate D2E/DX2                !
 ! A39   A(11,15,23)           119.7342         estimate D2E/DX2                !
 ! A40   A(14,15,23)           119.4357         estimate D2E/DX2                !
 ! A41   A(1,16,24)            111.41           estimate D2E/DX2                !
 ! A42   A(1,16,25)            107.1964         estimate D2E/DX2                !
 ! A43   A(1,16,26)            111.4147         estimate D2E/DX2                !
 ! A44   A(24,16,25)           107.1611         estimate D2E/DX2                !
 ! A45   A(24,16,26)           112.1764         estimate D2E/DX2                !
 ! A46   A(25,16,26)           107.1652         estimate D2E/DX2                !
 ! D1    D(16,1,8,5)          -179.996          estimate D2E/DX2                !
 ! D2    D(16,1,8,12)            0.0361         estimate D2E/DX2                !
 ! D3    D(8,1,16,24)          -63.0732         estimate D2E/DX2                !
 ! D4    D(8,1,16,25)          179.9836         estimate D2E/DX2                !
 ! D5    D(8,1,16,26)           63.0328         estimate D2E/DX2                !
 ! D6    D(5,3,4,6)              0.0016         estimate D2E/DX2                !
 ! D7    D(5,3,4,10)          -179.9991         estimate D2E/DX2                !
 ! D8    D(9,3,4,6)           -179.9759         estimate D2E/DX2                !
 ! D9    D(9,3,4,10)             0.0235         estimate D2E/DX2                !
 ! D10   D(4,3,5,7)              0.0015         estimate D2E/DX2                !
 ! D11   D(4,3,5,8)           -179.9747         estimate D2E/DX2                !
 ! D12   D(9,3,5,7)            179.982          estimate D2E/DX2                !
 ! D13   D(9,3,5,8)              0.0058         estimate D2E/DX2                !
 ! D14   D(4,3,9,13)           179.9752         estimate D2E/DX2                !
 ! D15   D(4,3,9,17)            -0.0176         estimate D2E/DX2                !
 ! D16   D(5,3,9,13)            -0.0003         estimate D2E/DX2                !
 ! D17   D(5,3,9,17)          -179.9931         estimate D2E/DX2                !
 ! D18   D(3,4,6,7)             -0.0039         estimate D2E/DX2                !
 ! D19   D(3,4,6,11)           179.9943         estimate D2E/DX2                !
 ! D20   D(10,4,6,7)           179.9966         estimate D2E/DX2                !
 ! D21   D(10,4,6,11)           -0.0052         estimate D2E/DX2                !
 ! D22   D(3,4,10,14)         -179.9946         estimate D2E/DX2                !
 ! D23   D(3,4,10,18)            0.0071         estimate D2E/DX2                !
 ! D24   D(6,4,10,14)            0.0047         estimate D2E/DX2                !
 ! D25   D(6,4,10,18)         -179.9936         estimate D2E/DX2                !
 ! D26   D(3,5,7,2)           -179.9009         estimate D2E/DX2                !
 ! D27   D(3,5,7,6)             -0.0038         estimate D2E/DX2                !
 ! D28   D(8,5,7,2)              0.0734         estimate D2E/DX2                !
 ! D29   D(8,5,7,6)            179.9705         estimate D2E/DX2                !
 ! D30   D(3,5,8,1)           -179.9702         estimate D2E/DX2                !
 ! D31   D(3,5,8,12)            -0.0012         estimate D2E/DX2                !
 ! D32   D(7,5,8,1)              0.059          estimate D2E/DX2                !
 ! D33   D(7,5,8,12)          -179.9719         estimate D2E/DX2                !
 ! D34   D(4,6,7,2)            179.9027         estimate D2E/DX2                !
 ! D35   D(4,6,7,5)              0.0048         estimate D2E/DX2                !
 ! D36   D(11,6,7,2)            -0.0954         estimate D2E/DX2                !
 ! D37   D(11,6,7,5)          -179.9933         estimate D2E/DX2                !
 ! D38   D(4,6,11,15)            0.0051         estimate D2E/DX2                !
 ! D39   D(4,6,11,19)         -179.9997         estimate D2E/DX2                !
 ! D40   D(7,6,11,15)         -179.9972         estimate D2E/DX2                !
 ! D41   D(7,6,11,19)           -0.002          estimate D2E/DX2                !
 ! D42   D(1,8,12,13)          179.9608         estimate D2E/DX2                !
 ! D43   D(1,8,12,20)           -0.0214         estimate D2E/DX2                !
 ! D44   D(5,8,12,13)           -0.0088         estimate D2E/DX2                !
 ! D45   D(5,8,12,20)         -179.9909         estimate D2E/DX2                !
 ! D46   D(3,9,13,12)           -0.0095         estimate D2E/DX2                !
 ! D47   D(3,9,13,21)          179.999          estimate D2E/DX2                !
 ! D48   D(17,9,13,12)         179.9833         estimate D2E/DX2                !
 ! D49   D(17,9,13,21)          -0.0081         estimate D2E/DX2                !
 ! D50   D(4,10,14,15)          -0.0046         estimate D2E/DX2                !
 ! D51   D(4,10,14,22)         179.9989         estimate D2E/DX2                !
 ! D52   D(18,10,14,15)        179.9937         estimate D2E/DX2                !
 ! D53   D(18,10,14,22)         -0.0028         estimate D2E/DX2                !
 ! D54   D(6,11,15,14)          -0.0048         estimate D2E/DX2                !
 ! D55   D(6,11,15,23)         179.9965         estimate D2E/DX2                !
 ! D56   D(19,11,15,14)        180.0            estimate D2E/DX2                !
 ! D57   D(19,11,15,23)          0.0012         estimate D2E/DX2                !
 ! D58   D(8,12,13,9)            0.0145         estimate D2E/DX2                !
 ! D59   D(8,12,13,21)        -179.9941         estimate D2E/DX2                !
 ! D60   D(20,12,13,9)         179.9979         estimate D2E/DX2                !
 ! D61   D(20,12,13,21)         -0.0107         estimate D2E/DX2                !
 ! D62   D(10,14,15,11)          0.0048         estimate D2E/DX2                !
 ! D63   D(10,14,15,23)       -179.9965         estimate D2E/DX2                !
 ! D64   D(22,14,15,11)       -179.9987         estimate D2E/DX2                !
 ! D65   D(22,14,15,23)          0.0            estimate D2E/DX2                !
 --------------------------------------------------------------------------------
 Trust Radius=3.00D-01 FncErr=1.00D-07 GrdErr=1.00D-06 EigMax=2.50D+02 EigMin=1.00D-04
 Number of steps in this run=    149 maximum allowed number of steps=    156.
 GradGradGradGradGradGradGradGradGradGradGradGradGradGradGradGradGradGrad

 Leave Link  103 at Thu Dec  7 12:36:16 2023, MaxMem=  2147483648 cpu:               6.5 elap:               0.5
 (Enter /opt/gaussian/g16-c01/g16/l202.exe)
                          Input orientation:                          
 ---------------------------------------------------------------------
 Center     Atomic      Atomic             Coordinates (Angstroms)
 Number     Number       Type             X           Y           Z
 ---------------------------------------------------------------------
      1          8           0       -2.914500   -1.283100    0.000700
      2          8           0       -0.181800   -2.494600   -0.001200
      3          6           0       -0.011500    1.002000    0.000300
      4          6           0        1.387300    0.631600    0.000200
      5          6           0       -0.797000   -0.163700    0.000400
      6          6           0        1.493000   -0.770100    0.000200
      7          6           0        0.121700   -1.321700    0.000400
      8          6           0       -2.177100   -0.147400    0.000000
      9          6           0       -0.627300    2.241100   -0.000100
     10          6           0        2.535600    1.403600    0.000100
     11          6           0        2.700300   -1.438900    0.000000
     12          6           0       -2.793200    1.104000   -0.000500
     13          6           0       -2.027100    2.285700   -0.000400
     14          6           0        3.774000    0.749600   -0.000100
     15          6           0        3.855000   -0.656300   -0.000100
     16          6           0       -4.337400   -1.141700    0.000100
     17          1           0       -0.053500    3.161800   -0.000300
     18          1           0        2.492600    2.487500    0.000200
     19          1           0        2.757700   -2.520800    0.000000
     20          1           0       -3.870300    1.238400   -0.000700
     21          1           0       -2.531400    3.248900   -0.000700
     22          1           0        4.689500    1.336000   -0.000200
     23          1           0        4.830700   -1.135100   -0.000200
     24          1           0       -4.689900   -0.641900    0.908700
     25          1           0       -4.762900   -2.150400    0.000500
     26          1           0       -4.689300   -0.642800   -0.909200
 ---------------------------------------------------------------------
                    Distance matrix (angstroms):
                    1          2          3          4          5
     1  O    0.000000
     2  O    2.989211   0.000000
     3  C    3.694468   3.500745   0.000000
     4  C    4.708669   3.497886   1.447010   0.000000
     5  C    2.395175   2.410719   1.405655   2.324579   0.000000
     6  C    4.437254   2.403925   2.324620   1.405680   2.368928
     7  C    3.036445   1.211532   2.327515   2.327472   1.478166
     8  C    1.354095   3.080677   2.451723   3.648532   1.380196
     9  C    4.201341   4.756609   1.383683   2.578586   2.410780
    10  C    6.076343   4.751866   2.578566   1.383682   3.682751
    11  C    5.616961   3.069365   3.648541   2.451722   3.722532
    12  C    2.390180   4.446272   2.783570   4.207106   2.364715
    13  C    3.677474   5.124100   2.389671   3.793966   2.740932
    14  C    6.990558   5.115974   3.793905   2.389615   4.661347
    15  C    6.798456   4.435663   4.207111   2.783564   4.678008
    16  C    1.429909   4.370280   4.827925   5.993061   3.672998
    17  H    5.286063   5.657855   2.160208   2.911669   3.407601
    18  H    6.591977   5.654532   2.911568   2.160105   4.224965
    19  H    5.805666   2.939617   4.480914   3.437386   4.265186
    20  H    2.696575   5.247887   3.866035   5.292501   3.378026
    21  H    4.548164   6.205515   3.376160   4.712374   3.828052
    22  H    8.042419   6.197020   4.712850   3.376493   5.687775
    23  H    7.746614   5.193592   5.292835   3.870172   5.710922
    24  H    2.094671   4.958163   5.041332   6.275311   4.025960
    25  H    2.041762   4.594013   5.702055   6.750147   4.435689
    26  H    2.094712   4.956933   5.041267   6.275044   4.025780
                    6          7          8          9         10
     6  C    0.000000
     7  C    1.478082   0.000000
     8  C    3.722551   2.581368   0.000000
     9  C    3.682798   3.640679   2.847246   0.000000
    10  C    2.410806   3.640628   4.961365   3.271902   0.000000
    11  C    1.380169   2.581262   5.045493   4.961383   2.847268
    12  C    4.678008   3.792185   1.394841   2.446246   5.337216
    13  C    4.661439   4.198890   2.437719   1.400510   4.647185
    14  C    2.740885   4.198759   6.018322   4.647151   1.400482
    15  C    2.364740   3.792135   6.053529   5.337222   2.446222
    16  C    5.842230   4.462732   2.378136   5.020775   7.329166
    17  H    4.225104   4.486922   3.931982   1.084866   3.129650
    18  H    3.407515   4.486777   5.361790   3.129615   1.084753
    19  H    2.159726   2.895917   5.475882   5.842424   3.930680
    20  H    5.727046   4.742381   2.188006   3.394474   6.408030
    21  H    5.687544   5.284820   3.414730   2.154358   5.392552
    22  H    3.827959   5.284711   7.025003   5.393289   2.154961
    23  H    3.357598   4.712696   7.077062   6.417826   3.422350
    24  H    6.250605   4.943544   2.717431   5.063825   7.564223
    25  H    6.406365   4.954398   3.270836   6.032285   8.117821
    26  H    6.250124   4.943076   2.717207   5.063910   7.563978
                   11         12         13         14         15
    11  C    0.000000
    12  C    6.053502   0.000000
    13  C    6.018385   1.408305   0.000000
    14  C    2.437696   6.576756   6.001030   0.000000
    15  C    1.394918   6.877297   6.576813   1.408231   0.000000
    16  C    7.043973   2.725385   4.133347   8.328975   8.206767
    17  H    5.361889   3.426441   2.159317   4.524209   5.463905
    18  H    3.931890   5.463859   4.524203   2.159232   3.426312
    19  H    1.083422   6.629605   6.782091   3.424673   2.163430
    20  H    7.095119   1.085453   2.119958   7.659912   7.954253
    21  H    7.024682   2.160818   1.087232   6.782667   7.485766
    22  H    3.414233   7.486296   6.783410   1.087201   2.160011
    23  H    2.151952   7.945906   7.663634   2.160720   1.086849
    24  H    7.488391   2.733548   4.060518   8.625531   8.593104
    25  H    7.497039   3.804056   5.211870   9.016023   8.746458
    26  H    7.487764   2.733540   4.060707   8.625120   8.592538
                   16         17         18         19         20
    16  C    0.000000
    17  H    6.072225   0.000000
    18  H    7.734339   2.633877   0.000000
    19  H    7.227888   6.339936   5.015311   0.000000
    20  H    2.425502   4.274041   6.484346   7.619840   0.000000
    21  H    4.747526   2.479430   5.081369   7.827133   2.415526
    22  H    9.360765   5.082282   2.480387   4.313555   8.560356
    23  H    9.168102   6.505287   4.311606   2.493490   9.018919
    24  H    1.095267   6.065527   7.887130   7.734517   2.243720
    25  H    1.094772   7.099149   8.611179   7.529716   3.504383
    26  H    1.095245   6.065618   7.887045   7.733779   2.243891
                   21         22         23         24         25
    21  H    0.000000
    22  H    7.469979   0.000000
    23  H    8.568546   2.475131   0.000000
    24  H    4.541416   9.628672   9.576595   0.000000
    25  H    5.842263  10.074862   9.647176   1.762308   0.000000
    26  H    4.541721   9.628282   9.575962   1.817900   1.762336
                   26
    26  H    0.000000
 Stoichiometry    C14H10O2
 Framework group  C1[X(C14H10O2)]
 Deg. of freedom    72
 Full point group                 C1      NOp   1
 Largest Abelian subgroup         C1      NOp   1
 Largest concise Abelian subgroup C1      NOp   1
                         Standard orientation:                         
 ---------------------------------------------------------------------
 Center     Atomic      Atomic             Coordinates (Angstroms)
 Number     Number       Type             X           Y           Z
 ---------------------------------------------------------------------
      1          8           0        2.833624   -1.188720   -0.000726
      2          8           0        0.129818   -2.463401    0.001174
      3          6           0       -0.121698    1.028297   -0.000326
      4          6           0       -1.511512    0.625488   -0.000226
      5          6           0        0.690681   -0.118833   -0.000426
      6          6           0       -1.584608   -0.778289   -0.000226
      7          6           0       -0.200859   -1.297871   -0.000426
      8          6           0        2.070029   -0.070464   -0.000026
      9          6           0        0.465139    2.281373    0.000074
     10          6           0       -2.677443    1.370593   -0.000126
     11          6           0       -2.776039   -1.474967   -0.000026
     12          6           0        2.656880    1.194916    0.000474
     13          6           0        1.863524    2.358493    0.000374
     14          6           0       -3.900310    0.687989    0.000074
     15          6           0       -3.948614   -0.719413    0.000074
     16          6           0        4.252854   -1.014290   -0.000126
     17          1           0       -0.129903    3.188489    0.000274
     18          1           0       -2.659645    2.455200   -0.000226
     19          1           0       -2.808280   -2.557908   -0.000026
     20          1           0        3.730566    1.354312    0.000674
     21          1           0        2.345303    3.333153    0.000674
     22          1           0       -4.829190    1.252955    0.000174
     23          1           0       -4.912924   -1.220759    0.000174
     24          1           0        4.593643   -0.506433   -0.908726
     25          1           0        4.701681   -2.012829   -0.000526
     26          1           0        4.593064   -0.507346    0.909174
 ---------------------------------------------------------------------
 Rotational constants (GHZ):           1.1775245           0.3926536           0.2950355
 Leave Link  202 at Thu Dec  7 12:36:16 2023, MaxMem=  2147483648 cpu:               7.4 elap:               0.5
 (Enter /opt/gaussian/g16-c01/g16/l301.exe)
 Standard basis: 6-311++G(d,p) (5D, 7F)
 Ernie: Thresh=  0.10000D-02 Tol=  0.10000D-05 Strict=F.
 There are   438 symmetry adapted cartesian basis functions of A   symmetry.
 There are   422 symmetry adapted basis functions of A   symmetry.
   422 basis functions,   666 primitive gaussians,   438 cartesian basis functions
    55 alpha electrons       55 beta electrons
       nuclear repulsion energy      1003.0180727190 Hartrees.
 IExCor= 7252 DFT=T Ex+Corr=MN15 ExCW=0 ScaHFX=  0.440000
 ScaDFX=  1.000000  1.000000  1.000000  1.000000 ScalE2=  1.000000  1.000000
 IRadAn=      5 IRanWt=     -1 IRanGd=            0 ICorTp=0 IEmpDi=  4
 NAtoms=   26 NActive=   26 NUniq=   26 SFac= 1.00D+00 NAtFMM=   60 NAOKFM=F Big=F
 Integral buffers will be    131072 words long.
 Raffenetti 2 integral format.
 Two-electron integral symmetry is turned on.
 Leave Link  301 at Thu Dec  7 12:36:16 2023, MaxMem=  2147483648 cpu:               3.0 elap:               0.3
 (Enter /opt/gaussian/g16-c01/g16/l302.exe)
 NPDir=0 NMtPBC=     1 NCelOv=     1 NCel=       1 NClECP=     1 NCelD=      1
         NCelK=      1 NCelE2=     1 NClLst=     1 CellRange=     0.0.
 One-electron integrals computed using PRISM.
 One-electron integral symmetry used in STVInt
 NBasis=   422 RedAO= T EigKep=  1.46D-06  NBF=   422
 NBsUse=   416 1.00D-06 EigRej=  6.41D-07 NBFU=   416
 Precomputing XC quadrature grid using
 IXCGrd= 4 IRadAn=           5 IRanWt=          -1 IRanGd=           0 AccXCQ= 0.00D+00.
 Generated NRdTot=       0 NPtTot=           0 NUsed=           0 NTot=          32
 NSgBfM=   438   438   438   438   438 MxSgAt=    26 MxSgA2=    26.
 Leave Link  302 at Thu Dec  7 12:36:18 2023, MaxMem=  2147483648 cpu:              26.2 elap:               1.2
 (Enter /opt/gaussian/g16-c01/g16/l303.exe)
 DipDrv:  MaxL=1.
 Leave Link  303 at Thu Dec  7 12:36:18 2023, MaxMem=  2147483648 cpu:               8.3 elap:               0.4
 (Enter /opt/gaussian/g16-c01/g16/l401.exe)
 ExpMin= 3.60D-02 ExpMax= 8.59D+03 ExpMxC= 1.30D+03 IAcc=3 IRadAn=         5 AccDes= 0.00D+00
 Harris functional with IExCor= 1009 and IRadAn=       5 diagonalized for initial guess.
 HarFok:  IExCor= 1009 AccDes= 0.00D+00 IRadAn=         5 IDoV= 1 UseB2=F ITyADJ=14
 ICtDFT=  3500011 ScaDFX=  1.000000  1.000000  1.000000  1.000000
 FoFCou: FMM=F IPFlag=           0 FMFlag=      100000 FMFlg1=           0
         NFxFlg=           0 DoJE=T BraDBF=F KetDBF=T FulRan=T
         wScrn=  0.000000 ICntrl=       500 IOpCl=  0 I1Cent=   200000004 NGrid=           0
         NMat0=    1 NMatS0=      1 NMatT0=    0 NMatD0=    1 NMtDS0=    0 NMtDT0=    0
 Petite list used in FoFCou.
 Harris En= -689.508692252129    
 JPrj=0 DoOrth=F DoCkMO=F.
 Leave Link  401 at Thu Dec  7 12:36:20 2023, MaxMem=  2147483648 cpu:              50.9 elap:               2.3
 (Enter /opt/gaussian/g16-c01/g16/l502.exe)
 Integral symmetry usage will be decided dynamically.
 Closed shell SCF:
 Using DIIS extrapolation, IDIIS=  1040.
 NGot=  2147483648 LenX=  2147083806 LenY=  2146891521
 Requested convergence on RMS density matrix=1.00D-08 within 128 cycles.
 Requested convergence on MAX density matrix=1.00D-06.
 Requested convergence on             energy=1.00D-06.
 No special actions if energy rises.
 Fock matrices will be formed incrementally for  20 cycles.

 Cycle   1  Pass 1  IDiag  1:
 FoFJK:  IHMeth= 1 ICntrl=       0 DoSepK=F KAlg= 0 I1Cent=           0 FoldK=F
 IRaf= 870000000 NMat=       1 IRICut=       1 DoRegI=T DoRafI=F ISym2E= 0 IDoP0=0 IntGTp=1.
 FoFCou: FMM=F IPFlag=           0 FMFlag=      100000 FMFlg1=           0
         NFxFlg=           0 DoJE=F BraDBF=F KetDBF=F FulRan=T
         wScrn=  0.000000 ICntrl=         0 IOpCl=  0 I1Cent=           0 NGrid=           0
         NMat0=    1 NMatS0=      1 NMatT0=    0 NMatD0=    1 NMtDS0=    0 NMtDT0=    0
 Symmetry not used in FoFCou.
 E= -689.014849475519    
 DIIS: error= 3.59D-02 at cycle   1 NSaved=   1.
 NSaved= 1 IEnMin= 1 EnMin= -689.014849475519     IErMin= 1 ErrMin= 3.59D-02
 ErrMax= 3.59D-02  0.00D+00 EMaxC= 1.00D-01 BMatC= 3.57D-01 BMatP= 3.57D-01
 IDIUse=3 WtCom= 6.41D-01 WtEn= 3.59D-01
 Coeff-Com:  0.100D+01
 Coeff-En:   0.100D+01
 Coeff:      0.100D+01
 Gap=     0.216 Goal=   None    Shift=    0.000
 GapD=    0.216 DampG=1.000 DampE=0.500 DampFc=0.5000 IDamp=-1.
 Damping current iteration by 5.00D-01
 RMSDP=1.92D-02 MaxDP=1.21D+00              OVMax= 1.68D-01

 Cycle   2  Pass 1  IDiag  1:
 RMSU=  7.10D-03    CP:  9.00D-01
 E= -689.155033098880     Delta-E=       -0.140183623361 Rises=F Damp=T
 DIIS: error= 9.76D-03 at cycle   2 NSaved=   2.
 NSaved= 2 IEnMin= 2 EnMin= -689.155033098880     IErMin= 2 ErrMin= 9.76D-03
 ErrMax= 9.76D-03  0.00D+00 EMaxC= 1.00D-01 BMatC= 4.12D-02 BMatP= 3.57D-01
 IDIUse=3 WtCom= 9.02D-01 WtEn= 9.76D-02
 Coeff-Com: -0.659D-01 0.107D+01
 Coeff-En:   0.000D+00 0.100D+01
 Coeff:     -0.595D-01 0.106D+01
 Gap=     0.246 Goal=   None    Shift=    0.000
 RMSDP=1.33D-02 MaxDP=1.08D+00 DE=-1.40D-01 OVMax= 1.23D-01

 Cycle   3  Pass 1  IDiag  1:
 RMSU=  6.09D-03    CP:  7.19D-01  9.04D-01
 E= -689.277252721936     Delta-E=       -0.122219623057 Rises=F Damp=F
 DIIS: error= 2.03D-02 at cycle   3 NSaved=   3.
 NSaved= 3 IEnMin= 3 EnMin= -689.277252721936     IErMin= 2 ErrMin= 9.76D-03
 ErrMax= 2.03D-02  0.00D+00 EMaxC= 1.00D-01 BMatC= 3.54D-02 BMatP= 4.12D-02
 IDIUse=3 WtCom= 7.97D-01 WtEn= 2.03D-01
 Coeff-Com: -0.127D+00 0.568D+00 0.559D+00
 Coeff-En:   0.000D+00 0.000D+00 0.100D+01
 Coeff:     -0.101D+00 0.453D+00 0.648D+00
 Gap=     0.201 Goal=   None    Shift=    0.000
 RMSDP=3.65D-03 MaxDP=2.54D-01 DE=-1.22D-01 OVMax= 8.25D-02

 Cycle   4  Pass 1  IDiag  1:
 RMSU=  2.07D-03    CP:  6.89D-01  1.16D+00  7.73D-01
 E= -689.289644182829     Delta-E=       -0.012391460893 Rises=F Damp=F
 DIIS: error= 1.23D-02 at cycle   4 NSaved=   4.
 NSaved= 4 IEnMin= 4 EnMin= -689.289644182829     IErMin= 2 ErrMin= 9.76D-03
 ErrMax= 1.23D-02  0.00D+00 EMaxC= 1.00D-01 BMatC= 1.74D-02 BMatP= 3.54D-02
 IDIUse=3 WtCom= 8.77D-01 WtEn= 1.23D-01
 Coeff-Com: -0.395D-01 0.132D+00 0.429D+00 0.478D+00
 Coeff-En:   0.000D+00 0.000D+00 0.373D+00 0.627D+00
 Coeff:     -0.347D-01 0.116D+00 0.422D+00 0.497D+00
 Gap=     0.197 Goal=   None    Shift=    0.000
 RMSDP=1.59D-03 MaxDP=6.24D-02 DE=-1.24D-02 OVMax= 3.44D-02

 Cycle   5  Pass 1  IDiag  1:
 RMSU=  7.65D-04    CP:  6.77D-01  1.10D+00  8.56D-01  5.36D-01
 E= -689.302895148150     Delta-E=       -0.013250965321 Rises=F Damp=F
 DIIS: error= 1.34D-03 at cycle   5 NSaved=   5.
 NSaved= 5 IEnMin= 5 EnMin= -689.302895148150     IErMin= 5 ErrMin= 1.34D-03
 ErrMax= 1.34D-03  0.00D+00 EMaxC= 1.00D-01 BMatC= 2.87D-04 BMatP= 1.74D-02
 IDIUse=3 WtCom= 9.87D-01 WtEn= 1.34D-02
 Coeff-Com: -0.122D-01 0.367D-01 0.178D+00 0.244D+00 0.553D+00
 Coeff-En:   0.000D+00 0.000D+00 0.000D+00 0.000D+00 0.100D+01
 Coeff:     -0.120D-01 0.362D-01 0.176D+00 0.241D+00 0.559D+00
 Gap=     0.198 Goal=   None    Shift=    0.000
 RMSDP=3.26D-04 MaxDP=2.32D-02 DE=-1.33D-02 OVMax= 6.13D-03

 Cycle   6  Pass 1  IDiag  1:
 RMSU=  1.87D-04    CP:  6.80D-01  1.09D+00  8.69D-01  5.25D-01  7.69D-01
 E= -689.303130025796     Delta-E=       -0.000234877646 Rises=F Damp=F
 DIIS: error= 5.00D-04 at cycle   6 NSaved=   6.
 NSaved= 6 IEnMin= 6 EnMin= -689.303130025796     IErMin= 6 ErrMin= 5.00D-04
 ErrMax= 5.00D-04  0.00D+00 EMaxC= 1.00D-01 BMatC= 4.15D-05 BMatP= 2.87D-04
 IDIUse=3 WtCom= 9.95D-01 WtEn= 5.00D-03
 Coeff-Com: -0.152D-02 0.282D-02 0.414D-01 0.704D-01 0.315D+00 0.572D+00
 Coeff-En:   0.000D+00 0.000D+00 0.000D+00 0.000D+00 0.104D+00 0.896D+00
 Coeff:     -0.151D-02 0.281D-02 0.412D-01 0.700D-01 0.314D+00 0.573D+00
 Gap=     0.198 Goal=   None    Shift=    0.000
 RMSDP=8.74D-05 MaxDP=3.64D-03 DE=-2.35D-04 OVMax= 2.60D-03

 Cycle   7  Pass 1  IDiag  1:
 RMSU=  6.13D-05    CP:  6.80D-01  1.08D+00  8.75D-01  5.29D-01  7.65D-01
                    CP:  7.81D-01
 E= -689.303170734855     Delta-E=       -0.000040709059 Rises=F Damp=F
 DIIS: error= 1.17D-04 at cycle   7 NSaved=   7.
 NSaved= 7 IEnMin= 7 EnMin= -689.303170734855     IErMin= 7 ErrMin= 1.17D-04
 ErrMax= 1.17D-04  0.00D+00 EMaxC= 1.00D-01 BMatC= 2.73D-06 BMatP= 4.15D-05
 IDIUse=3 WtCom= 9.99D-01 WtEn= 1.17D-03
 Coeff-Com:  0.633D-03-0.280D-02-0.704D-03 0.402D-02 0.774D-01 0.264D+00
 Coeff-Com:  0.658D+00
 Coeff-En:   0.000D+00 0.000D+00 0.000D+00 0.000D+00 0.000D+00 0.000D+00
 Coeff-En:   0.100D+01
 Coeff:      0.633D-03-0.279D-02-0.703D-03 0.402D-02 0.773D-01 0.263D+00
 Coeff:      0.658D+00
 Gap=     0.198 Goal=   None    Shift=    0.000
 RMSDP=2.98D-05 MaxDP=1.39D-03 DE=-4.07D-05 OVMax= 4.93D-04

 Cycle   8  Pass 1  IDiag  1:
 RMSU=  2.31D-05    CP:  6.80D-01  1.08D+00  8.76D-01  5.26D-01  7.81D-01
                    CP:  8.16D-01  1.03D+00
 E= -689.303173375753     Delta-E=       -0.000002640898 Rises=F Damp=F
 DIIS: error= 3.07D-05 at cycle   8 NSaved=   8.
 NSaved= 8 IEnMin= 8 EnMin= -689.303173375753     IErMin= 8 ErrMin= 3.07D-05
 ErrMax= 3.07D-05  0.00D+00 EMaxC= 1.00D-01 BMatC= 2.60D-07 BMatP= 2.73D-06
 IDIUse=1 WtCom= 1.00D+00 WtEn= 0.00D+00
 Coeff-Com:  0.570D-03-0.184D-02-0.554D-02-0.780D-02-0.563D-02 0.506D-01
 Coeff-Com:  0.268D+00 0.702D+00
 Coeff:      0.570D-03-0.184D-02-0.554D-02-0.780D-02-0.563D-02 0.506D-01
 Coeff:      0.268D+00 0.702D+00
 Gap=     0.198 Goal=   None    Shift=    0.000
 RMSDP=1.73D-05 MaxDP=9.86D-04 DE=-2.64D-06 OVMax= 2.44D-04

 Cycle   9  Pass 1  IDiag  1:
 RMSU=  9.44D-06    CP:  6.80D-01  1.08D+00  8.78D-01  5.23D-01  7.88D-01
                    CP:  8.35D-01  1.05D+00  1.16D+00
 E= -689.303173671039     Delta-E=       -0.000000295285 Rises=F Damp=F
 DIIS: error= 1.38D-05 at cycle   9 NSaved=   9.
 NSaved= 9 IEnMin= 9 EnMin= -689.303173671039     IErMin= 9 ErrMin= 1.38D-05
 ErrMax= 1.38D-05  0.00D+00 EMaxC= 1.00D-01 BMatC= 4.27D-08 BMatP= 2.60D-07
 IDIUse=1 WtCom= 1.00D+00 WtEn= 0.00D+00
 Coeff-Com:  0.244D-03-0.676D-03-0.247D-02-0.415D-02-0.957D-02 0.235D-02
 Coeff-Com:  0.600D-01 0.329D+00 0.625D+00
 Coeff:      0.244D-03-0.676D-03-0.247D-02-0.415D-02-0.957D-02 0.235D-02
 Coeff:      0.600D-01 0.329D+00 0.625D+00
 Gap=     0.198 Goal=   None    Shift=    0.000
 RMSDP=6.15D-06 MaxDP=3.88D-04 DE=-2.95D-07 OVMax= 9.79D-05

 Cycle  10  Pass 1  IDiag  1:
 RMSU=  2.31D-06    CP:  6.80D-01  1.08D+00  8.78D-01  5.22D-01  7.89D-01
                    CP:  8.36D-01  1.06D+00  1.28D+00  1.09D+00
 E= -689.303173722009     Delta-E=       -0.000000050970 Rises=F Damp=F
 DIIS: error= 5.54D-06 at cycle  10 NSaved=  10.
 NSaved=10 IEnMin=10 EnMin= -689.303173722009     IErMin=10 ErrMin= 5.54D-06
 ErrMax= 5.54D-06  0.00D+00 EMaxC= 1.00D-01 BMatC= 6.22D-09 BMatP= 4.27D-08
 IDIUse=1 WtCom= 1.00D+00 WtEn= 0.00D+00
 Coeff-Com: -0.536D-05 0.836D-04 0.140D-03-0.213D-03-0.340D-02-0.971D-02
 Coeff-Com: -0.354D-01-0.149D-01 0.275D+00 0.788D+00
 Coeff:     -0.536D-05 0.836D-04 0.140D-03-0.213D-03-0.340D-02-0.971D-02
 Coeff:     -0.354D-01-0.149D-01 0.275D+00 0.788D+00
 Gap=     0.198 Goal=   None    Shift=    0.000
 RMSDP=2.65D-06 MaxDP=2.05D-04 DE=-5.10D-08 OVMax= 7.05D-05

 Cycle  11  Pass 1  IDiag  1:
 RMSU=  7.82D-07    CP:  6.80D-01  1.08D+00  8.78D-01  5.22D-01  7.90D-01
                    CP:  8.36D-01  1.06D+00  1.32D+00  1.17D+00  9.79D-01
 E= -689.303173731869     Delta-E=       -0.000000009860 Rises=F Damp=F
 DIIS: error= 1.77D-06 at cycle  11 NSaved=  11.
 NSaved=11 IEnMin=11 EnMin= -689.303173731869     IErMin=11 ErrMin= 1.77D-06
 ErrMax= 1.77D-06  0.00D+00 EMaxC= 1.00D-01 BMatC= 6.21D-10 BMatP= 6.22D-09
 IDIUse=1 WtCom= 1.00D+00 WtEn= 0.00D+00
 Coeff-Com: -0.229D-04 0.910D-04 0.268D-03 0.270D-03-0.611D-03-0.368D-02
 Coeff-Com: -0.185D-01-0.348D-01 0.549D-01 0.334D+00 0.668D+00
 Coeff:     -0.229D-04 0.910D-04 0.268D-03 0.270D-03-0.611D-03-0.368D-02
 Coeff:     -0.185D-01-0.348D-01 0.549D-01 0.334D+00 0.668D+00
 Gap=     0.198 Goal=   None    Shift=    0.000
 RMSDP=5.45D-07 MaxDP=3.71D-05 DE=-9.86D-09 OVMax= 1.55D-05

 Cycle  12  Pass 1  IDiag  1:
 RMSU=  2.43D-07    CP:  6.80D-01  1.08D+00  8.78D-01  5.22D-01  7.90D-01
                    CP:  8.36D-01  1.06D+00  1.33D+00  1.19D+00  1.05D+00
                    CP:  1.04D+00
 E= -689.303173732764     Delta-E=       -0.000000000894 Rises=F Damp=F
 DIIS: error= 7.00D-07 at cycle  12 NSaved=  12.
 NSaved=12 IEnMin=12 EnMin= -689.303173732764     IErMin=12 ErrMin= 7.00D-07
 ErrMax= 7.00D-07  0.00D+00 EMaxC= 1.00D-01 BMatC= 1.02D-10 BMatP= 6.21D-10
 IDIUse=1 WtCom= 1.00D+00 WtEn= 0.00D+00
 Coeff-Com: -0.108D-04 0.291D-04 0.980D-04 0.168D-03 0.319D-03 0.162D-03
 Coeff-Com: -0.169D-02-0.145D-01-0.314D-01 0.585D-02 0.300D+00 0.741D+00
 Coeff:     -0.108D-04 0.291D-04 0.980D-04 0.168D-03 0.319D-03 0.162D-03
 Coeff:     -0.169D-02-0.145D-01-0.314D-01 0.585D-02 0.300D+00 0.741D+00
 Gap=     0.198 Goal=   None    Shift=    0.000
 RMSDP=2.22D-07 MaxDP=1.42D-05 DE=-8.94D-10 OVMax= 9.54D-06

 Cycle  13  Pass 1  IDiag  1:
 RMSU=  1.01D-07    CP:  6.80D-01  1.08D+00  8.78D-01  5.22D-01  7.90D-01
                    CP:  8.35D-01  1.06D+00  1.34D+00  1.20D+00  1.08D+00
                    CP:  1.10D+00  9.20D-01
 E= -689.303173732937     Delta-E=       -0.000000000173 Rises=F Damp=F
 DIIS: error= 2.06D-07 at cycle  13 NSaved=  13.
 NSaved=13 IEnMin=13 EnMin= -689.303173732937     IErMin=13 ErrMin= 2.06D-07
 ErrMax= 2.06D-07  0.00D+00 EMaxC= 1.00D-01 BMatC= 5.54D-12 BMatP= 1.02D-10
 IDIUse=1 WtCom= 1.00D+00 WtEn= 0.00D+00
 Coeff-Com: -0.379D-06-0.189D-05-0.182D-06 0.150D-04 0.151D-03 0.421D-03
 Coeff-Com:  0.146D-02 0.147D-04-0.131D-01-0.284D-01 0.150D-01 0.186D+00
 Coeff-Com:  0.839D+00
 Coeff:     -0.379D-06-0.189D-05-0.182D-06 0.150D-04 0.151D-03 0.421D-03
 Coeff:      0.146D-02 0.147D-04-0.131D-01-0.284D-01 0.150D-01 0.186D+00
 Coeff:      0.839D+00
 Gap=     0.198 Goal=   None    Shift=    0.000
 RMSDP=6.59D-08 MaxDP=3.37D-06 DE=-1.73D-10 OVMax= 3.18D-06

 Cycle  14  Pass 1  IDiag  1:
 RMSU=  3.45D-08    CP:  6.80D-01  1.08D+00  8.78D-01  5.22D-01  7.90D-01
                    CP:  8.35D-01  1.06D+00  1.34D+00  1.20D+00  1.08D+00
                    CP:  1.11D+00  9.67D-01  1.21D+00
 E= -689.303173733008     Delta-E=       -0.000000000071 Rises=F Damp=F
 DIIS: error= 1.27D-07 at cycle  14 NSaved=  14.
 NSaved=14 IEnMin=14 EnMin= -689.303173733008     IErMin=14 ErrMin= 1.27D-07
 ErrMax= 1.27D-07  0.00D+00 EMaxC= 1.00D-01 BMatC= 2.70D-12 BMatP= 5.54D-12
 IDIUse=1 WtCom= 1.00D+00 WtEn= 0.00D+00
 Coeff-Com:  0.110D-05-0.424D-05-0.114D-04-0.132D-04 0.316D-04 0.151D-03
 Coeff-Com:  0.816D-03 0.187D-02-0.234D-02-0.151D-01-0.383D-01-0.147D-01
 Coeff-Com:  0.467D+00 0.600D+00
 Coeff:      0.110D-05-0.424D-05-0.114D-04-0.132D-04 0.316D-04 0.151D-03
 Coeff:      0.816D-03 0.187D-02-0.234D-02-0.151D-01-0.383D-01-0.147D-01
 Coeff:      0.467D+00 0.600D+00
 Gap=     0.198 Goal=   None    Shift=    0.000
 RMSDP=1.95D-08 MaxDP=8.64D-07 DE=-7.14D-11 OVMax= 1.11D-06

 Cycle  15  Pass 1  IDiag  1:
 RMSU=  1.34D-08    CP:  6.80D-01  1.08D+00  8.78D-01  5.22D-01  7.90D-01
                    CP:  8.35D-01  1.06D+00  1.34D+00  1.20D+00  1.08D+00
                    CP:  1.11D+00  9.86D-01  1.29D+00  9.47D-01
 E= -689.303173732973     Delta-E=        0.000000000035 Rises=F Damp=F
 DIIS: error= 2.83D-08 at cycle  15 NSaved=  15.
 NSaved=15 IEnMin=14 EnMin= -689.303173733008     IErMin=15 ErrMin= 2.83D-08
 ErrMax= 2.83D-08  0.00D+00 EMaxC= 1.00D-01 BMatC= 1.95D-13 BMatP= 2.70D-12
 IDIUse=1 WtCom= 1.00D+00 WtEn= 0.00D+00
 Coeff-Com:  0.578D-06-0.165D-05-0.513D-05-0.747D-05-0.598D-05 0.870D-05
 Coeff-Com:  0.130D-03 0.840D-03 0.888D-03-0.206D-02-0.178D-01-0.301D-01
 Coeff-Com:  0.610D-01 0.233D+00 0.754D+00
 Coeff:      0.578D-06-0.165D-05-0.513D-05-0.747D-05-0.598D-05 0.870D-05
 Coeff:      0.130D-03 0.840D-03 0.888D-03-0.206D-02-0.178D-01-0.301D-01
 Coeff:      0.610D-01 0.233D+00 0.754D+00
 Gap=     0.198 Goal=   None    Shift=    0.000
 RMSDP=8.54D-09 MaxDP=3.79D-07 DE= 3.50D-11 OVMax= 4.79D-07

 SCF Done:  E(RMN15) =  -689.303173733     A.U. after   15 cycles
            NFock= 15  Conv=0.85D-08     -V/T= 2.0033
 KE= 6.870321450628D+02 PE=-3.612735758518D+03 EE= 1.233382367003D+03
 Leave Link  502 at Thu Dec  7 12:38:35 2023, MaxMem=  2147483648 cpu:            3346.6 elap:             134.7
 (Enter /opt/gaussian/g16-c01/g16/l601.exe)
 Copying SCF densities to generalized density rwf, IOpCl= 0 IROHF=0.

 **********************************************************************

            Population analysis using the SCF Density.

 **********************************************************************

 Orbital symmetries:
       Occupied  (A) (A) (A) (A) (A) (A) (A) (A) (A) (A) (A) (A)
                 (A) (A) (A) (A) (A) (A) (A) (A) (A) (A) (A) (A)
                 (A) (A) (A) (A) (A) (A) (A) (A) (A) (A) (A) (A)
                 (A) (A) (A) (A) (A) (A) (A) (A) (A) (A) (A) (A)
                 (A) (A) (A) (A) (A) (A) (A)
       Virtual   (A) (A) (A) (A) (A) (A) (A) (A) (A) (A) (A) (A)
                 (A) (A) (A) (A) (A) (A) (A) (A) (A) (A) (A) (A)
                 (A) (A) (A) (A) (A) (A) (A) (A) (A) (A) (A) (A)
                 (A) (A) (A) (A) (A) (A) (A) (A) (A) (A) (A) (A)
                 (A) (A) (A) (A) (A) (A) (A) (A) (A) (A) (A) (A)
                 (A) (A) (A) (A) (A) (A) (A) (A) (A) (A) (A) (A)
                 (A) (A) (A) (A) (A) (A) (A) (A) (A) (A) (A) (A)
                 (A) (A) (A) (A) (A) (A) (A) (A) (A) (A) (A) (A)
                 (A) (A) (A) (A) (A) (A) (A) (A) (A) (A) (A) (A)
                 (A) (A) (A) (A) (A) (A) (A) (A) (A) (A) (A) (A)
                 (A) (A) (A) (A) (A) (A) (A) (A) (A) (A) (A) (A)
                 (A) (A) (A) (A) (A) (A) (A) (A) (A) (A) (A) (A)
                 (A) (A) (A) (A) (A) (A) (A) (A) (A) (A) (A) (A)
                 (A) (A) (A) (A) (A) (A) (A) (A) (A) (A) (A) (A)
                 (A) (A) (A) (A) (A) (A) (A) (A) (A) (A) (A) (A)
                 (A) (A) (A) (A) (A) (A) (A) (A) (A) (A) (A) (A)
                 (A) (A) (A) (A) (A) (A) (A) (A) (A) (A) (A) (A)
                 (A) (A) (A) (A) (A) (A) (A) (A) (A) (A) (A) (A)
                 (A) (A) (A) (A) (A) (A) (A) (A) (A) (A) (A) (A)
                 (A) (A) (A) (A) (A) (A) (A) (A) (A) (A) (A) (A)
                 (A) (A) (A) (A) (A) (A) (A) (A) (A) (A) (A) (A)
                 (A) (A) (A) (A) (A) (A) (A) (A) (A) (A) (A) (A)
                 (A) (A) (A) (A) (A) (A) (A) (A) (A) (A) (A) (A)
                 (A) (A) (A) (A) (A) (A) (A) (A) (A) (A) (A) (A)
                 (A) (A) (A) (A) (A) (A) (A) (A) (A) (A) (A) (A)
                 (A) (A) (A) (A) (A) (A) (A) (A) (A) (A) (A) (A)
                 (A) (A) (A) (A) (A) (A) (A) (A) (A) (A) (A) (A)
                 (A) (A) (A) (A) (A) (A) (A) (A) (A) (A) (A) (A)
                 (A) (A) (A) (A) (A) (A) (A) (A) (A) (A) (A) (A)
                 (A) (A) (A) (A) (A) (A) (A) (A) (A) (A) (A) (A)
                 (A)
 The electronic state is 1-A.
 Alpha  occ. eigenvalues --  -18.84370 -18.79012 -10.12512 -10.12392 -10.10137
 Alpha  occ. eigenvalues --  -10.06684 -10.06556 -10.06285 -10.06085 -10.05793
 Alpha  occ. eigenvalues --  -10.05746 -10.05553 -10.05407 -10.05269 -10.04897
 Alpha  occ. eigenvalues --  -10.04707  -1.12209  -1.08107  -0.95107  -0.90880
 Alpha  occ. eigenvalues --   -0.85655  -0.82301  -0.80805  -0.77595  -0.75748
 Alpha  occ. eigenvalues --   -0.71348  -0.68427  -0.65116  -0.62752  -0.61659
 Alpha  occ. eigenvalues --   -0.57401  -0.56163  -0.54715  -0.53270  -0.53145
 Alpha  occ. eigenvalues --   -0.50631  -0.50061  -0.48899  -0.48461  -0.48439
 Alpha  occ. eigenvalues --   -0.46989  -0.45353  -0.43451  -0.42886  -0.41880
 Alpha  occ. eigenvalues --   -0.41675  -0.40822  -0.39387  -0.38452  -0.38394
 Alpha  occ. eigenvalues --   -0.33344  -0.30332  -0.29409  -0.27834  -0.26498
 Alpha virt. eigenvalues --   -0.06701  -0.02267   0.01476   0.02734   0.03419
 Alpha virt. eigenvalues --    0.04312   0.04816   0.05285   0.05759   0.06781
 Alpha virt. eigenvalues --    0.06865   0.07262   0.07722   0.07984   0.09088
 Alpha virt. eigenvalues --    0.09822   0.10200   0.10954   0.11843   0.11878
 Alpha virt. eigenvalues --    0.12782   0.13027   0.13074   0.13679   0.13768
 Alpha virt. eigenvalues --    0.14155   0.14953   0.15131   0.15378   0.16129
 Alpha virt. eigenvalues --    0.16362   0.16514   0.16541   0.17336   0.17533
 Alpha virt. eigenvalues --    0.18010   0.18374   0.18610   0.18915   0.19074
 Alpha virt. eigenvalues --    0.19679   0.19715   0.20058   0.20686   0.20946
 Alpha virt. eigenvalues --    0.21297   0.22023   0.22585   0.22920   0.23516
 Alpha virt. eigenvalues --    0.24178   0.24204   0.24543   0.24848   0.25125
 Alpha virt. eigenvalues --    0.25963   0.26771   0.26858   0.27055   0.27278
 Alpha virt. eigenvalues --    0.28206   0.28805   0.29159   0.29323   0.29878
 Alpha virt. eigenvalues --    0.30158   0.30799   0.31337   0.31870   0.32244
 Alpha virt. eigenvalues --    0.32591   0.33519   0.34156   0.34664   0.34827
 Alpha virt. eigenvalues --    0.35223   0.35606   0.35808   0.36672   0.37076
 Alpha virt. eigenvalues --    0.37388   0.38058   0.38433   0.38795   0.39668
 Alpha virt. eigenvalues --    0.39759   0.39904   0.40236   0.40584   0.42515
 Alpha virt. eigenvalues --    0.43742   0.44332   0.45003   0.45765   0.47595
 Alpha virt. eigenvalues --    0.48894   0.49559   0.50318   0.51631   0.53315
 Alpha virt. eigenvalues --    0.55309   0.56016   0.57078   0.57095   0.57732
 Alpha virt. eigenvalues --    0.59016   0.59132   0.59686   0.60936   0.61479
 Alpha virt. eigenvalues --    0.61898   0.61972   0.62510   0.63509   0.63886
 Alpha virt. eigenvalues --    0.64003   0.64811   0.65387   0.66319   0.66480
 Alpha virt. eigenvalues --    0.68076   0.68176   0.68425   0.69261   0.69670
 Alpha virt. eigenvalues --    0.70399   0.70586   0.72684   0.73923   0.74553
 Alpha virt. eigenvalues --    0.74903   0.76025   0.76482   0.77147   0.78357
 Alpha virt. eigenvalues --    0.80057   0.80720   0.81895   0.82081   0.83255
 Alpha virt. eigenvalues --    0.84958   0.86479   0.87002   0.88608   0.89824
 Alpha virt. eigenvalues --    0.90387   0.91767   0.92362   0.92977   0.94915
 Alpha virt. eigenvalues --    0.95906   0.96171   0.96691   0.97730   0.99452
 Alpha virt. eigenvalues --    1.00036   1.00150   1.00480   1.02121   1.02816
 Alpha virt. eigenvalues --    1.03212   1.04181   1.04781   1.05560   1.06898
 Alpha virt. eigenvalues --    1.07870   1.07889   1.09746   1.10101   1.10860
 Alpha virt. eigenvalues --    1.11582   1.12929   1.15107   1.16053   1.16359
 Alpha virt. eigenvalues --    1.17826   1.19116   1.22408   1.26677   1.28054
 Alpha virt. eigenvalues --    1.30343   1.30919   1.32499   1.34779   1.36801
 Alpha virt. eigenvalues --    1.38860   1.39410   1.41869   1.43452   1.45686
 Alpha virt. eigenvalues --    1.46398   1.47275   1.50196   1.51064   1.51736
 Alpha virt. eigenvalues --    1.52321   1.53722   1.55056   1.56114   1.56744
 Alpha virt. eigenvalues --    1.57380   1.57551   1.58202   1.59005   1.60776
 Alpha virt. eigenvalues --    1.63834   1.66428   1.67446   1.69206   1.69451
 Alpha virt. eigenvalues --    1.70256   1.71193   1.72043   1.73319   1.73702
 Alpha virt. eigenvalues --    1.74974   1.76274   1.76720   1.78250   1.80320
 Alpha virt. eigenvalues --    1.82103   1.83580   1.85332   1.86417   1.87035
 Alpha virt. eigenvalues --    1.87803   1.88545   1.88941   1.92311   1.92807
 Alpha virt. eigenvalues --    1.94363   1.94508   1.95285   1.95880   1.97046
 Alpha virt. eigenvalues --    1.97807   1.98803   2.02122   2.02371   2.04501
 Alpha virt. eigenvalues --    2.04559   2.07230   2.07914   2.10612   2.11056
 Alpha virt. eigenvalues --    2.11255   2.13841   2.19347   2.19680   2.20253
 Alpha virt. eigenvalues --    2.25545   2.25659   2.29461   2.30877   2.32839
 Alpha virt. eigenvalues --    2.33749   2.36412   2.39932   2.43006   2.43509
 Alpha virt. eigenvalues --    2.43996   2.44942   2.47158   2.48927   2.50064
 Alpha virt. eigenvalues --    2.53755   2.57326   2.59215   2.61975   2.62946
 Alpha virt. eigenvalues --    2.64523   2.67286   2.67328   2.68656   2.69090
 Alpha virt. eigenvalues --    2.70428   2.71295   2.73436   2.73631   2.73780
 Alpha virt. eigenvalues --    2.75434   2.75529   2.76217   2.76702   2.78332
 Alpha virt. eigenvalues --    2.79702   2.80979   2.81213   2.81734   2.84217
 Alpha virt. eigenvalues --    2.86036   2.87296   2.87600   2.92781   2.93445
 Alpha virt. eigenvalues --    2.93568   2.94684   2.95762   3.04649   3.05644
 Alpha virt. eigenvalues --    3.06931   3.07901   3.09450   3.14732   3.17451
 Alpha virt. eigenvalues --    3.20643   3.21054   3.23451   3.24454   3.31526
 Alpha virt. eigenvalues --    3.32989   3.34848   3.35318   3.37233   3.38830
 Alpha virt. eigenvalues --    3.45625   3.47775   3.48446   3.49377   3.55960
 Alpha virt. eigenvalues --    3.59918   3.65451   3.68702   3.71745   3.72819
 Alpha virt. eigenvalues --    3.76140   3.85077   3.94499   3.95854   3.98019
 Alpha virt. eigenvalues --    4.02274   4.05043   4.07783   4.17420   4.21421
 Alpha virt. eigenvalues --    4.35885   4.63664   4.70301   4.74197   4.96223
 Alpha virt. eigenvalues --    4.99898   5.19551   5.32985   5.65252   5.71125
 Alpha virt. eigenvalues --   22.41696  22.61349  22.80622  22.81635  22.83058
 Alpha virt. eigenvalues --   22.84227  22.85718  22.87987  22.94719  22.95262
 Alpha virt. eigenvalues --   22.97706  22.99066  23.04728  23.06478  47.53437
 Alpha virt. eigenvalues --   47.62311
          Condensed to atoms (all electrons):
               1          2          3          4          5          6
     1  O    8.194959   0.029590  -0.028525   0.011036  -0.418405   0.017742
     2  O    0.029590   8.163753  -0.253143  -0.274458   0.041568   0.008568
     3  C   -0.028525  -0.253143  11.070398   3.380044  -1.696326  -1.676479
     4  C    0.011036  -0.274458   3.380044  11.467950  -4.783782  -1.816823
     5  C   -0.418405   0.041568  -1.696326  -4.783782  14.599112   1.759066
     6  C    0.017742   0.008568  -1.676479  -1.816823   1.759066  10.574189
     7  C   -0.237744   0.406566   1.982196   1.756430  -0.052512  -1.749306
     8  C   -0.099432   0.116371  -3.248992  -1.879701   3.592317   0.857467
     9  C    0.017503   0.010300  -1.266118  -0.564828   0.600170  -0.366944
    10  C    0.000561   0.004101  -1.345292  -0.470345  -1.866619  -0.905023
    11  C    0.001369   0.037291  -0.754171  -0.786622  -1.398474  -1.861777
    12  C    0.537876  -0.028962   0.118432   0.093701  -3.708675   0.347749
    13  C    0.155761  -0.003720  -0.553082   0.062246  -1.229220  -0.272860
    14  C    0.000545  -0.007753   0.101225  -0.480021  -0.331213   0.260313
    15  C   -0.000703   0.004297  -0.210501   0.178428   0.353353   0.149295
    16  C    0.102479   0.000074   0.027605   0.008588   0.315274  -0.026095
    17  H    0.000694   0.000602  -0.081474  -0.052959   0.052920  -0.005957
    18  H    0.000050   0.000600  -0.074244  -0.051075  -0.041791  -0.022942
    19  H   -0.000001   0.001983   0.010884   0.058543  -0.064881  -0.083978
    20  H   -0.034742   0.001364   0.016420  -0.003086   0.005361  -0.003763
    21  H   -0.000893   0.000060   0.019706   0.006717  -0.020276   0.007504
    22  H    0.000001  -0.000099   0.022531   0.044520   0.008343   0.041380
    23  H   -0.000032   0.001714  -0.007032   0.005365   0.019546   0.063908
    24  H   -0.013711  -0.000272   0.004529   0.007611  -0.025654   0.001750
    25  H   -0.116873  -0.000492   0.011885  -0.002892   0.012520  -0.004567
    26  H   -0.013579  -0.000268   0.004365   0.007533  -0.025958   0.001748
               7          8          9         10         11         12
     1  O   -0.237744  -0.099432   0.017503   0.000561   0.001369   0.537876
     2  O    0.406566   0.116371   0.010300   0.004101   0.037291  -0.028962
     3  C    1.982196  -3.248992  -1.266118  -1.345292  -0.754171   0.118432
     4  C    1.756430  -1.879701  -0.564828  -0.470345  -0.786622   0.093701
     5  C   -0.052512   3.592317   0.600170  -1.866619  -1.398474  -3.708675
     6  C   -1.749306   0.857467  -0.366944  -0.905023  -1.861777   0.347749
     7  C   10.582097  -1.406540  -0.057289  -0.549056  -1.289312  -2.625912
     8  C   -1.406540  15.026762  -0.040540  -0.090315  -0.147327  -4.173600
     9  C   -0.057289  -0.040540   7.827071   0.356081   0.495919  -1.855713
    10  C   -0.549056  -0.090315   0.356081   8.852709   2.628562  -0.006511
    11  C   -1.289312  -0.147327   0.495919   2.628562   9.619274  -0.039519
    12  C   -2.625912  -4.173600  -1.855713  -0.006511  -0.039519  15.160849
    13  C   -0.549285  -2.846218   1.103686  -0.117282  -0.002120   2.347231
    14  C    0.032956  -0.100260  -0.177731   0.202442  -0.133192  -0.118036
    15  C   -0.097092   0.132583  -0.144924  -0.746869  -0.250139   0.061234
    16  C    0.107687   0.578194  -0.029707  -0.000293   0.005704  -0.836815
    17  H    0.018849   0.057337   0.394262   0.017583  -0.000672  -0.050360
    18  H   -0.022623   0.005717   0.054548   0.461039   0.076539   0.007549
    19  H    0.001687  -0.014329   0.007779   0.060564   0.465174  -0.004393
    20  H    0.006658  -0.049983  -0.020267  -0.006717   0.000900   0.456335
    21  H   -0.021942  -0.038126  -0.045994   0.010200   0.000666   0.008724
    22  H   -0.009728  -0.000457  -0.000762  -0.101564  -0.053269  -0.001150
    23  H    0.008006   0.006065  -0.006946  -0.044825  -0.163519   0.001619
    24  H   -0.030256  -0.206857   0.001272   0.000856  -0.000232   0.178286
    25  H    0.029491   0.164604  -0.005094  -0.000255   0.000131  -0.116221
    26  H   -0.030400  -0.207279   0.001265   0.000848  -0.000238   0.179234
              13         14         15         16         17         18
     1  O    0.155761   0.000545  -0.000703   0.102479   0.000694   0.000050
     2  O   -0.003720  -0.007753   0.004297   0.000074   0.000602   0.000600
     3  C   -0.553082   0.101225  -0.210501   0.027605  -0.081474  -0.074244
     4  C    0.062246  -0.480021   0.178428   0.008588  -0.052959  -0.051075
     5  C   -1.229220  -0.331213   0.353353   0.315274   0.052920  -0.041791
     6  C   -0.272860   0.260313   0.149295  -0.026095  -0.005957  -0.022942
     7  C   -0.549285   0.032956  -0.097092   0.107687   0.018849  -0.022623
     8  C   -2.846218  -0.100260   0.132583   0.578194   0.057337   0.005717
     9  C    1.103686  -0.177731  -0.144924  -0.029707   0.394262   0.054548
    10  C   -0.117282   0.202442  -0.746869  -0.000293   0.017583   0.461039
    11  C   -0.002120  -0.133192  -0.250139   0.005704  -0.000672   0.076539
    12  C    2.347231  -0.118036   0.061234  -0.836815  -0.050360   0.007549
    13  C    8.429939  -0.069995  -0.022870  -0.338795  -0.053234   0.019332
    14  C   -0.069995   6.783009   0.090575  -0.000153   0.022755  -0.131674
    15  C   -0.022870   0.090575   6.375406  -0.001986  -0.018816   0.024920
    16  C   -0.338795  -0.000153  -0.001986   5.114278  -0.000263   0.000025
    17  H   -0.053234   0.022755  -0.018816  -0.000263   0.684827  -0.008659
    18  H    0.019332  -0.131674   0.024920   0.000025  -0.008659   0.664905
    19  H   -0.000448  -0.011282  -0.106920   0.000248   0.000604   0.002530
    20  H   -0.067449  -0.000965  -0.000616   0.015662   0.001158  -0.000708
    21  H    0.382171   0.000686   0.000952   0.000615  -0.034363   0.002161
    22  H    0.000399   0.429759  -0.058691  -0.000018   0.002269  -0.028730
    23  H   -0.000676  -0.046663   0.482563  -0.000029  -0.000813  -0.000716
    24  H    0.060545   0.000023   0.000037   0.373300  -0.000282   0.000061
    25  H   -0.037763  -0.000055  -0.000139   0.417551  -0.000091  -0.000012
    26  H    0.060814   0.000022   0.000038   0.373185  -0.000284   0.000061
              19         20         21         22         23         24
     1  O   -0.000001  -0.034742  -0.000893   0.000001  -0.000032  -0.013711
     2  O    0.001983   0.001364   0.000060  -0.000099   0.001714  -0.000272
     3  C    0.010884   0.016420   0.019706   0.022531  -0.007032   0.004529
     4  C    0.058543  -0.003086   0.006717   0.044520   0.005365   0.007611
     5  C   -0.064881   0.005361  -0.020276   0.008343   0.019546  -0.025654
     6  C   -0.083978  -0.003763   0.007504   0.041380   0.063908   0.001750
     7  C    0.001687   0.006658  -0.021942  -0.009728   0.008006  -0.030256
     8  C   -0.014329  -0.049983  -0.038126  -0.000457   0.006065  -0.206857
     9  C    0.007779  -0.020267  -0.045994  -0.000762  -0.006946   0.001272
    10  C    0.060564  -0.006717   0.010200  -0.101564  -0.044825   0.000856
    11  C    0.465174   0.000900   0.000666  -0.053269  -0.163519  -0.000232
    12  C   -0.004393   0.456335   0.008724  -0.001150   0.001619   0.178286
    13  C   -0.000448  -0.067449   0.382171   0.000399  -0.000676   0.060545
    14  C   -0.011282  -0.000965   0.000686   0.429759  -0.046663   0.000023
    15  C   -0.106920  -0.000616   0.000952  -0.058691   0.482563   0.000037
    16  C    0.000248   0.015662   0.000615  -0.000018  -0.000029   0.373300
    17  H    0.000604   0.001158  -0.034363   0.002269  -0.000813  -0.000282
    18  H    0.002530  -0.000708   0.002161  -0.028730  -0.000716   0.000061
    19  H    0.565015  -0.000015  -0.000055  -0.002020  -0.020429   0.000025
    20  H   -0.000015   0.597451  -0.028461   0.000045  -0.000023  -0.010693
    21  H   -0.000055  -0.028461   0.596882  -0.000098   0.000052   0.001281
    22  H   -0.002020   0.000045  -0.000098   0.589270  -0.023633  -0.000000
    23  H   -0.020429  -0.000023   0.000052  -0.023633   0.592098   0.000003
    24  H    0.000025  -0.010693   0.001281  -0.000000   0.000003   0.615266
    25  H   -0.000003   0.006137  -0.000135  -0.000002  -0.000004  -0.040931
    26  H    0.000025  -0.010740   0.001291  -0.000000   0.000003  -0.040938
              25         26
     1  O   -0.116873  -0.013579
     2  O   -0.000492  -0.000268
     3  C    0.011885   0.004365
     4  C   -0.002892   0.007533
     5  C    0.012520  -0.025958
     6  C   -0.004567   0.001748
     7  C    0.029491  -0.030400
     8  C    0.164604  -0.207279
     9  C   -0.005094   0.001265
    10  C   -0.000255   0.000848
    11  C    0.000131  -0.000238
    12  C   -0.116221   0.179234
    13  C   -0.037763   0.060814
    14  C   -0.000055   0.000022
    15  C   -0.000139   0.000038
    16  C    0.417551   0.373185
    17  H   -0.000091  -0.000284
    18  H   -0.000012   0.000061
    19  H   -0.000003   0.000025
    20  H    0.006137  -0.010740
    21  H   -0.000135   0.001291
    22  H   -0.000002  -0.000000
    23  H   -0.000004   0.000003
    24  H   -0.040931  -0.040938
    25  H    0.552033  -0.040946
    26  H   -0.040946   0.615242
 Mulliken charges:
               1
     1  O   -0.105527
     2  O   -0.259636
     3  C    0.425158
     4  C    0.077879
     5  C    0.304235
     6  C    0.705837
     7  C   -0.203629
     8  C    0.012538
     9  C   -0.286998
    10  C   -0.344580
    11  C   -0.450944
    12  C    0.067049
    13  C   -0.457107
    14  C   -0.315318
    15  C   -0.193415
    16  C   -0.206315
    17  H    0.054367
    18  H    0.063137
    19  H    0.133690
    20  H    0.130737
    21  H    0.150675
    22  H    0.141706
    23  H    0.134398
    24  H    0.124981
    25  H    0.172121
    26  H    0.124959
 Sum of Mulliken charges =  -0.00000
 Mulliken charges with hydrogens summed into heavy atoms:
               1
     1  O   -0.105527
     2  O   -0.259636
     3  C    0.425158
     4  C    0.077879
     5  C    0.304235
     6  C    0.705837
     7  C   -0.203629
     8  C    0.012538
     9  C   -0.232630
    10  C   -0.281443
    11  C   -0.317254
    12  C    0.197787
    13  C   -0.306433
    14  C   -0.173612
    15  C   -0.059017
    16  C    0.215746
 Electronic spatial extent (au):  <R**2>=           3590.7657
 Charge=             -0.0000 electrons
 Dipole moment (field-independent basis, Debye):
    X=              0.8102    Y=              3.6723    Z=             -0.0011  Tot=              3.7606
 Quadrupole moment (field-independent basis, Debye-Ang):
   XX=            -65.9474   YY=            -93.2078   ZZ=            -96.6613
   XY=              1.8853   XZ=              0.0022   YZ=              0.0067
 Traceless Quadrupole moment (field-independent basis, Debye-Ang):
   XX=             19.3248   YY=             -7.9356   ZZ=            -11.3891
   XY=              1.8853   XZ=              0.0022   YZ=              0.0067
 Octapole moment (field-independent basis, Debye-Ang**2):
  XXX=             53.4235  YYY=             27.9478  ZZZ=              0.0024  XYY=             -4.3459
  XXY=            -13.7565  XXZ=              0.0142  XZZ=             13.4967  YZZ=            -10.9254
  YYZ=             -0.0104  XYZ=              0.0012
 Hexadecapole moment (field-independent basis, Debye-Ang**3):
 XXXX=          -2983.6898 YYYY=          -1200.3054 ZZZZ=           -115.2989 XXXY=            -65.3040
 XXXZ=             -0.0117 YYYX=              8.6484 YYYZ=              0.0601 ZZZX=             -0.0034
 ZZZY=             -0.0091 XXYY=           -713.3152 XXZZ=           -662.0542 YYZZ=           -239.3204
 XXYZ=             -0.0006 YYXZ=              0.0096 ZZXY=            -13.1835
 N-N= 1.003018072719D+03 E-N=-3.612735755981D+03  KE= 6.870321450628D+02
 No NMR shielding tensors so no spin-rotation constants.
 Leave Link  601 at Thu Dec  7 12:38:37 2023, MaxMem=  2147483648 cpu:              34.6 elap:               1.5
 (Enter /opt/gaussian/g16-c01/g16/l701.exe)
 ... and contract with generalized density number  0.
 Compute integral first derivatives.
 Leave Link  701 at Thu Dec  7 12:38:41 2023, MaxMem=  2147483648 cpu:              74.4 elap:               4.1
 (Enter /opt/gaussian/g16-c01/g16/l702.exe)
 L702 exits ... SP integral derivatives will be done elsewhere.
 Leave Link  702 at Thu Dec  7 12:38:42 2023, MaxMem=  2147483648 cpu:               9.5 elap:               0.7
 (Enter /opt/gaussian/g16-c01/g16/l703.exe)
 Integral derivatives from FoFJK, PRISM(SPDF).
 Compute integral first derivatives, UseDBF=F ICtDFT=           0.
 Calling FoFJK, ICntrl=      2127 FMM=F ISym2X=0 I1Cent= 0 IOpClX= 0 NMat=1 NMatS=1 NMatT=0.
 FoFJK:  IHMeth= 1 ICntrl=    2127 DoSepK=F KAlg= 0 I1Cent=           0 FoldK=F
 IRaf=         0 NMat=       1 IRICut=       1 DoRegI=T DoRafI=F ISym2E= 0 IDoP0=0 IntGTp=1.
 FoFCou: FMM=F IPFlag=           0 FMFlag=      100000 FMFlg1=         800
         NFxFlg=           0 DoJE=F BraDBF=F KetDBF=F FulRan=T
         wScrn=  0.000000 ICntrl=      2127 IOpCl=  0 I1Cent=           0 NGrid=           0
         NMat0=    1 NMatS0=      1 NMatT0=    0 NMatD0=    1 NMtDS0=    0 NMtDT0=    0
 Symmetry not used in FoFCou.
 Leave Link  703 at Thu Dec  7 12:38:56 2023, MaxMem=  2147483648 cpu:             325.9 elap:              14.3
 (Enter /opt/gaussian/g16-c01/g16/l716.exe)
 Dipole        = 3.18760093D-01 1.44480782D+00-4.23506598D-04
 ***** Axes restored to original set *****
 -------------------------------------------------------------------
 Center     Atomic                   Forces (Hartrees/Bohr)
 Number     Number              X              Y              Z
 -------------------------------------------------------------------
      1        8          -0.000954415    0.001894580   -0.000039103
      2        8           0.001967118   -0.003646805    0.000077888
      3        6          -0.028472766    0.004666992   -0.000015715
      4        6           0.021986601   -0.009660871    0.000019286
      5        6           0.012966346   -0.005952985    0.000046079
      6        6          -0.000021606    0.006788096    0.000054457
      7        6          -0.008696850   -0.015412221   -0.000192712
      8        6          -0.023088701    0.000151634    0.000055958
      9        6          -0.001059642    0.007159393   -0.000001924
     10        6           0.005477146    0.001482734   -0.000006433
     11        6           0.002996825    0.004368983    0.000008199
     12        6           0.001225989    0.031244866    0.000004673
     13        6           0.000317497   -0.012573543   -0.000019070
     14        6           0.000076303   -0.008986243    0.000007981
     15        6           0.005346280    0.009729914   -0.000010702
     16        6           0.004552549   -0.011448363    0.000029166
     17        1           0.000303378   -0.000439890    0.000004928
     18        1          -0.000395567    0.000080212   -0.000004725
     19        1          -0.002680316   -0.000280228    0.000000271
     20        1           0.002729652   -0.004731002   -0.000001598
     21        1           0.000197287   -0.002699608    0.000000984
     22        1          -0.001774765   -0.001439351    0.000001180
     23        1          -0.001439746    0.001577200   -0.000001506
     24        1           0.001169812    0.003170734   -0.002979523
     25        1           0.006102651    0.001780301   -0.000002780
     26        1           0.001168940    0.003175470    0.002964740
 -------------------------------------------------------------------
 Cartesian Forces:  Max     0.031244866 RMS     0.007396175
 Leave Link  716 at Thu Dec  7 12:38:57 2023, MaxMem=  2147483648 cpu:               9.0 elap:               0.7
 (Enter /opt/gaussian/g16-c01/g16/l103.exe)

 GradGradGradGradGradGradGradGradGradGradGradGradGradGradGradGradGradGrad
 Berny optimization.
 FormGI is forming the generalized inverse of G from B-inverse, IUseBI=4.
 GSVD:  received Info=                   1 from GESDD.
 Internal  Forces:  Max     0.020174016 RMS     0.004455306
 Search for a local minimum.
 Step number   1 out of a maximum of  149
 All quantities printed in internal units (Hartrees-Bohrs-Radians)
 RMS Force = .44553D-02 SwitMx=.10000D-02 MixMth= 1
 Mixed Optimization -- RFO/linear search
 Second derivative matrix not updated -- first step.
 ITU=  0
     Eigenvalues ---    0.01055   0.01296   0.01516   0.01723   0.01853
     Eigenvalues ---    0.01884   0.01932   0.02003   0.02027   0.02028
     Eigenvalues ---    0.02074   0.02077   0.02084   0.02090   0.02202
     Eigenvalues ---    0.02203   0.02236   0.02242   0.02262   0.02267
     Eigenvalues ---    0.02299   0.09840   0.10581   0.16000   0.16000
     Eigenvalues ---    0.16000   0.16000   0.16000   0.16000   0.16000
     Eigenvalues ---    0.16000   0.16000   0.16000   0.22000   0.22100
     Eigenvalues ---    0.22611   0.23540   0.24528   0.24924   0.25000
     Eigenvalues ---    0.25000   0.25000   0.25000   0.25000   0.33166
     Eigenvalues ---    0.33521   0.34211   0.34213   0.34267   0.35135
     Eigenvalues ---    0.35138   0.35179   0.35343   0.35413   0.35426
     Eigenvalues ---    0.35584   0.37658   0.38500   0.40570   0.41002
     Eigenvalues ---    0.42765   0.42932   0.43512   0.44342   0.45676
     Eigenvalues ---    0.45740   0.47687   0.47698   0.48388   0.48398
     Eigenvalues ---    0.54159   0.99236
 RFO step:  Lambda=-8.86450456D-03 EMin= 1.05533046D-02
 Linear search not attempted -- first point.
 Iteration  1 RMS(Cart)=  0.05084134 RMS(Int)=  0.00133932
 Iteration  2 RMS(Cart)=  0.00235935 RMS(Int)=  0.00003225
 Iteration  3 RMS(Cart)=  0.00000063 RMS(Int)=  0.00003225
 ITry= 1 IFail=0 DXMaxC= 2.68D-01 DCOld= 1.00D+10 DXMaxT= 3.00D-01 DXLimC= 3.00D+00 Rises=F
 Variable       Old X    -DE/DX   Delta X   Delta X   Delta X     New X
                                 (Linear)    (Quad)   (Total)
    R1        2.55887  -0.00535   0.00000  -0.00972  -0.00972   2.54915
    R2        2.70214  -0.01326   0.00000  -0.03166  -0.03166   2.67047
    R3        2.28946   0.00304   0.00000   0.00303   0.00303   2.29250
    R4        2.73445   0.02017   0.00000   0.05139   0.05133   2.78578
    R5        2.65630  -0.00003   0.00000   0.00161   0.00163   2.65794
    R6        2.61478   0.00260   0.00000   0.00486   0.00488   2.61966
    R7        2.65635  -0.00360   0.00000  -0.00765  -0.00767   2.64868
    R8        2.61478   0.00408   0.00000   0.00857   0.00857   2.62335
    R9        2.79333   0.01066   0.00000   0.02992   0.02998   2.82331
   R10        2.60819   0.00963   0.00000   0.02073   0.02075   2.62894
   R11        2.79317   0.01207   0.00000   0.03316   0.03320   2.82637
   R12        2.60814   0.00158   0.00000   0.00344   0.00345   2.61159
   R13        2.63587   0.01186   0.00000   0.02545   0.02543   2.66130
   R14        2.64658  -0.00299   0.00000  -0.00799  -0.00801   2.63857
   R15        2.05010  -0.00021   0.00000  -0.00059  -0.00059   2.04951
   R16        2.64653  -0.00179   0.00000  -0.00414  -0.00415   2.64238
   R17        2.04989   0.00010   0.00000   0.00027   0.00027   2.05015
   R18        2.63601   0.00333   0.00000   0.00672   0.00672   2.64274
   R19        2.04737   0.00014   0.00000   0.00037   0.00037   2.04774
   R20        2.66131  -0.01181   0.00000  -0.02727  -0.02731   2.63400
   R21        2.05121  -0.00329   0.00000  -0.00909  -0.00909   2.04212
   R22        2.05457  -0.00248   0.00000  -0.00689  -0.00689   2.04768
   R23        2.66117  -0.01108   0.00000  -0.02511  -0.02513   2.63605
   R24        2.05451  -0.00227   0.00000  -0.00630  -0.00630   2.04821
   R25        2.05385  -0.00199   0.00000  -0.00551  -0.00551   2.04833
   R26        2.06976  -0.00140   0.00000  -0.00400  -0.00400   2.06576
   R27        2.06882  -0.00401   0.00000  -0.01141  -0.01141   2.05741
   R28        2.06971  -0.00139   0.00000  -0.00397  -0.00397   2.06575
    A1        2.04762   0.00926   0.00000   0.03578   0.03578   2.08341
    A2        1.90489  -0.00243   0.00000  -0.00782  -0.00790   1.89699
    A3        2.29088  -0.00300   0.00000  -0.01346  -0.01346   2.27741
    A4        2.08741   0.00542   0.00000   0.02128   0.02136   2.10878
    A5        1.90492  -0.00173   0.00000  -0.00655  -0.00662   1.89830
    A6        2.29084   0.00034   0.00000   0.00021   0.00024   2.29108
    A7        2.08742   0.00140   0.00000   0.00634   0.00638   2.09381
    A8        1.87796   0.00462   0.00000   0.01718   0.01721   1.89517
    A9        2.15194  -0.00857   0.00000  -0.02895  -0.02892   2.12302
   A10        2.25328   0.00395   0.00000   0.01177   0.01171   2.26499
   A11        1.87797   0.00533   0.00000   0.01945   0.01947   1.89744
   A12        2.15194  -0.00585   0.00000  -0.02112  -0.02111   2.13083
   A13        2.25327   0.00052   0.00000   0.00167   0.00165   2.25492
   A14        2.21771   0.00612   0.00000   0.02360   0.02355   2.24126
   A15        2.20644  -0.00033   0.00000  -0.00133  -0.00139   2.20505
   A16        1.85903  -0.00579   0.00000  -0.02227  -0.02216   1.83687
   A17        2.13486  -0.01914   0.00000  -0.07601  -0.07601   2.05886
   A18        2.10822   0.01797   0.00000   0.06737   0.06737   2.17559
   A19        2.04010   0.00117   0.00000   0.00864   0.00864   2.04874
   A20        2.06387  -0.00114   0.00000  -0.00874  -0.00873   2.05514
   A21        2.12305   0.00007   0.00000   0.00140   0.00140   2.12445
   A22        2.09626   0.00107   0.00000   0.00734   0.00733   2.10360
   A23        2.06383   0.00051   0.00000   0.00206   0.00204   2.06587
   A24        2.12304  -0.00066   0.00000  -0.00342  -0.00341   2.11963
   A25        2.09632   0.00015   0.00000   0.00136   0.00137   2.09769
   A26        2.04007   0.00400   0.00000   0.01711   0.01712   2.05719
   A27        2.12968  -0.00476   0.00000  -0.02486  -0.02486   2.10482
   A28        2.11343   0.00075   0.00000   0.00775   0.00775   2.12118
   A29        2.10892  -0.00085   0.00000  -0.00455  -0.00461   2.10431
   A30        2.15243  -0.00404   0.00000  -0.02420  -0.02417   2.12826
   A31        2.02184   0.00490   0.00000   0.02875   0.02878   2.05062
   A32        2.11413   0.00396   0.00000   0.01231   0.01226   2.12639
   A33        2.08497  -0.00087   0.00000   0.00041   0.00044   2.08541
[...]
 00000001,-0.00001089,-0.00000442,0.00000001,-0.00001909,-0.00009002,-0
 .00000009,-0.01255040,0.36472084,-0.00000007,0.00000004,0.00001110,0.0
 0000025,0.00000065,0.00015916,-0.00000010,0.00000103,0.00025749,-0.000
 00408,0.00000267,0.00806303,0.00000071,0.00000002,0.00053267,0.0000050
 6,0.00000471,0.00375272,0.00000039,-0.00000053,-0.00443423,-0.00000002
 ,-0.00000005,0.00004997,-0.00000035,0.00000006,-0.00044225,-0.00000196
 ,-0.00000108,-0.00085527,-0.00001092,0.00002178,-0.03978134,-0.0000000
 1,-0.00000016,-0.00005723,0.00000014,0.00000011,-0.00006170,-0.0000005
 7,-0.00000182,0.00704550,0.00000260,-0.00000140,0.00451090,0.00000002,
 -0.00000002,0.00000824,-0.00000001,0.00000002,0.00002504,0.00000015,-0
 .00000008,-0.00118662,0.00000762,-0.00002553,0.02641215,-0.00056042,-0
 .00000212,-0.00000047,0.00006244,0.00051661,-0.00000029,0.00070846,-0.
 00006669,-0.00000028,-0.00001800,0.00003322,0.00000005,0.00002380,0.00
 270334,0.00000134,-0.00020239,0.00023534,0.00000001,0.00008756,-0.0012
 1454,-0.00000011,-0.00953762,-0.00146823,0.00000210,0.00044354,-0.0028
 9538,0.00000098,-0.00005312,-0.00001705,-0.00000004,-0.00002447,-0.000
 07870,-0.00000006,-0.34488123,0.03091689,0.00004849,-0.01273728,0.0038
 0585,0.00000217,0.00000214,-0.00002201,-0.00000002,-0.00001640,0.00001
 907,-0.00000001,-0.00106274,-0.00253109,-0.00000026,-0.00061642,0.0001
 8215,0.00000016,0.00002274,0.00000042,0.00000002,0.00000496,0.00000938
 ,0.,0.36731547,-0.00254502,0.00146559,-0.00000003,-0.00019652,-0.00048
 800,0.00000043,-0.00023365,-0.00180995,0.,0.00012060,0.00008712,-0.000
 00014,0.00224858,-0.00509160,-0.00000120,0.00047462,-0.00047722,0.0000
 0013,0.00074844,0.00139949,-0.00000025,0.02758502,0.00503630,-0.000004
 13,-0.00281065,-0.00346494,0.00000107,-0.00009611,-0.00004146,-0.00000
 001,-0.00005102,0.00017158,-0.00000001,0.03060177,-0.05935288,-0.00000
 223,-0.02654227,0.00587719,0.00000441,0.00009663,-0.00006573,0.0000000
 6,0.00008879,0.00008164,0.,0.00049766,-0.00241313,0.,-0.00115665,0.000
 09963,0.00000013,0.00003587,0.00002700,0.,-0.00001254,-0.00000817,0.,-
 0.02760833,0.06007009,0.,0.00000062,-0.00270403,-0.00000017,0.00000003
 ,0.00002553,-0.00000064,0.00000022,-0.00063682,-0.00000004,0.,-0.00035
 375,0.00000113,-0.00000013,0.00438878,0.00000010,0.00000004,0.00008922
 ,0.,-0.00000032,0.00029927,0.00000008,-0.00000093,0.00327171,0.0000003
 6,0.00000107,0.00666716,0.,-0.00000003,-0.00001914,0.00000003,-0.00000
 004,-0.00026728,0.00004817,-0.00000255,-0.03067361,0.00000461,-0.00000
 018,0.00232144,0.,-0.00000004,-0.00004626,0.00000006,-0.00000002,-0.00
 003404,0.00000007,0.00000013,-0.00015723,0.00000040,-0.00000010,0.0004
 1131,-0.00000003,-0.00000001,0.00003917,0.,0.,0.00000115,-0.00005307,0
 .00000235,0.02237690,0.00050383,-0.00085287,-0.00000019,0.00007126,0.0
 0006310,-0.00000003,-0.00606377,0.00012675,0.00000120,0.00029260,0.001
 19513,0.00000032,-0.00058408,-0.00104838,0.00000017,-0.00049131,0.0000
 9877,-0.00000015,-0.00023692,0.00005275,-0.00000010,-0.00147058,-0.003
 50107,0.00000166,-0.00766633,0.02818202,0.00000153,0.00003383,0.000101
 89,-0.00000003,0.00012170,0.00013335,0.00000004,0.01035218,-0.01677835
 ,0.,-0.11687433,0.11598649,0.00001001,-0.00004725,0.00000717,-0.000000
 04,-0.00005868,-0.00003423,-0.00000002,0.00015944,0.00007584,0.,0.0010
 9070,-0.00051347,-0.00000069,-0.00000602,-0.00003772,0.00000002,-0.000
 04904,0.00002554,-0.00000002,0.00085203,0.00045863,-0.00000100,0.12017
 469,0.00023625,-0.00159466,-0.00000005,0.00001846,-0.00013802,0.000000
 08,0.00002605,0.00169572,0.00000016,-0.00027913,0.00007261,-0.00000003
 ,-0.00072782,0.00023664,-0.00000009,0.00002819,-0.00003133,0.00000005,
 -0.00001435,0.00014983,-0.00000007,-0.00348032,-0.00176669,0.00000085,
 -0.00176854,0.00220971,0.00000024,0.00010898,-0.00003730,0.00000002,0.
 00006276,0.00001606,-0.00000001,0.01317625,-0.01769400,-0.00000147,0.1
 1566544,-0.28559342,-0.00001271,-0.00003477,0.00004280,-0.00000002,0.0
 0000307,-0.00006248,0.00000001,0.00060020,0.00004963,0.,0.00043492,0.0
 0053895,-0.00000016,-0.00001438,0.00000349,0.,0.00000207,-0.00000620,0
 .,-0.00016811,0.00095891,-0.00000011,-0.12374286,0.30088647,-0.0000003
 7,0.00000054,-0.00052860,0.00000003,0.00000003,0.00011737,0.00000113,-
 0.00000120,0.00635115,0.00000018,-0.00000052,0.00006238,0.00000001,0.0
 0000023,-0.00108520,0.00000022,0.00000022,-0.00000167,-0.00000019,-0.0
 0000015,-0.00068815,0.00000328,-0.00000015,0.00761189,0.00000050,-0.00
 000362,0.00498356,-0.00000008,0.00000006,0.00000868,0.,-0.00000006,-0.
 00008628,-0.00000080,0.00000616,0.00445932,0.00001004,-0.00001439,-0.0
 3882640,-0.00000002,0.,-0.00000296,-0.00000002,-0.00000001,-0.00003736
 ,-0.00000012,-0.00000004,0.00002470,-0.00000041,0.00000005,-0.00395787
 ,0.00000001,0.00000002,0.00003112,0.,0.,0.00008761,-0.00000071,-0.0000
 0048,-0.00441843,-0.00001269,0.00001332,0.02582729,-0.00020170,-0.0001
 2006,0.00000002,-0.00003883,-0.00018701,0.00000007,-0.00011989,-0.0010
 6682,-0.00000030,-0.00373254,0.00330920,-0.00000207,-0.00043925,0.0001
 1005,0.00000008,0.00022699,0.00097636,-0.00000011,-0.00007766,0.000181
 53,0.00000016,0.00015210,0.00002187,-0.00000004,-0.00012109,-0.0000456
 3,0.,-0.01721140,-0.01672222,-0.00000284,0.00147483,0.00089424,-0.0000
 0139,-0.00007231,-0.00002277,0.00000003,0.00003262,0.00005120,0.000000
 02,-0.26171778,-0.13008260,-0.00003294,0.00479930,0.00351008,-0.000000
 73,0.00008713,-0.00000753,0.,0.00001883,0.00002292,-0.00000002,0.00096
 376,0.00026223,0.00000097,0.00011297,0.00020533,0.00000008,-0.00001062
 ,0.00000463,0.,-0.00003413,0.00001502,0.,0.27529702,-0.00000706,-0.000
 02631,0.00000001,-0.00011948,0.00006440,0.,0.00045989,0.00050842,0.000
 00013,0.00342394,-0.00031761,0.00000133,0.00016400,-0.00008060,0.00000
 010,0.00109485,-0.00086313,0.00000007,0.00009333,-0.00009798,-0.000000
 17,-0.00005753,0.00014987,-0.00000005,-0.00009972,0.00008746,0.,0.0135
 7350,0.01098552,0.00000215,0.00092432,-0.00550451,0.00000182,-0.000019
 16,-0.00008190,0.00000001,0.00008400,0.00000912,-0.00000003,-0.1299769
 8,-0.14079555,-0.00001603,-0.02722684,-0.01092904,-0.00000363,0.000033
 00,0.00000528,0.,0.00000528,-0.00002104,0.,-0.00067896,0.00071089,-0.0
 0000063,-0.00122548,-0.00054911,-0.00000022,-0.00000315,0.00000021,0.,
 0.00000711,0.00000140,0.,0.13912860,0.14575465,-0.00000011,-0.00000010
 ,0.00004264,-0.00000007,0.00000009,0.00015042,-0.00000034,-0.00000042,
 0.00035054,-0.00000256,0.00000022,0.00664631,-0.00000020,0.00000032,-0
 .00010769,0.00000029,-0.00000020,-0.00073657,0.00000027,-0.00000029,-0
 .00094804,0.00000002,0.00000006,-0.00010463,-0.00000001,0.00000003,0.0
 0000189,-0.00000498,-0.00000441,0.00422640,-0.00000345,0.00000213,0.00
 698712,0.,-0.00000008,-0.00002746,0.00000007,0.00000004,-0.00000148,-0
 .00003362,-0.00001775,-0.03828531,0.00000482,0.00000543,0.00428094,0.0
 0000007,0.,0.00002981,0.,0.00000003,0.00002003,0.00000089,-0.00000022,
 -0.00399192,0.00000047,0.00000024,-0.00009911,0.,0.,0.00000287,0.,0.,-
 0.00000837,0.00003778,0.00001569,0.02580664,-0.00016464,-0.00013849,0.
 00000002,-0.00018721,-0.00058183,0.00000040,-0.00004548,-0.00003522,0.
 00000010,0.00028386,-0.00082061,0.00000020,-0.00064194,-0.00006744,0.0
 0000005,-0.00332175,-0.00385097,-0.00000263,0.00050479,0.00149904,-0.0
 0000021,0.00019301,0.00027704,0.00000007,-0.00008251,0.00004376,0.0000
 0002,0.00165499,-0.00021718,-0.00000060,-0.01728122,0.01366317,-0.0000
 0596,-0.00005917,-0.00002465,0.,0.00002598,0.00004756,0.00000002,0.002
 18277,-0.00224078,0.00000014,-0.28894520,0.11489388,-0.00006144,0.0001
 1274,0.00000463,-0.00000002,0.00000624,0.00001056,-0.00000002,-0.00000
 689,-0.00014057,-0.00000004,0.00093809,-0.00017683,0.00000109,-0.00001
 954,0.00002104,-0.00000001,-0.00000922,0.00000878,0.,0.00063971,0.0004
 2533,0.00000069,0.30425611,0.00003216,0.00002986,0.,0.00006140,-0.0001
 3653,0.00000023,-0.00008231,0.00009478,-0.00000011,-0.00093427,-0.0011
 1555,-0.00000020,-0.00035127,-0.00003623,0.00000004,-0.00359451,-0.001
 15778,-0.00000052,-0.00033051,0.00077925,-0.00000043,0.00008127,0.0000
 2303,0.00000005,0.00006947,-0.00007484,0.,-0.00044339,-0.00524506,0.00
 000158,-0.01657776,0.01129354,-0.00000428,-0.00000415,0.00009672,-0.00
 000006,-0.00010540,-0.00000810,0.00000003,0.02866150,-0.00871928,0.000
 00736,0.11453602,-0.11442203,0.00003323,-0.00001206,0.00000259,0.,-0.0
 0002684,0.00004387,0.,0.00128915,-0.00056456,0.00000032,0.00079179,0.0
 0066800,-0.00000020,-0.00000114,0.00001351,0.00000001,0.00000246,-0.00
 000406,0.,-0.00044783,0.00098422,-0.00000083,-0.12261191,0.11745828,0.
 ,-0.00000008,-0.00000749,0.00000005,-0.00000008,0.00002682,0.00000019,
 -0.00000006,-0.00076106,0.00000072,-0.00000006,-0.00079946,-0.00000020
 ,0.,0.00012060,-0.00000159,0.00000018,0.00644981,-0.00000008,-0.000000
 16,0.00047118,-0.00000007,0.00000008,-0.00031684,-0.00000005,-0.000000
 01,0.00002940,-0.00000045,0.00000153,0.00697696,-0.00000243,0.00000136
 ,0.00388120,-0.00000006,0.,0.00000025,0.00000002,-0.00000002,-0.000062
 82,-0.00000458,0.00000215,0.00343942,-0.00006151,0.00003220,-0.0369241
 0,0.00000002,0.00000001,0.00000937,0.,-0.00000002,0.00003628,-0.000000
 40,0.00000009,0.00010710,0.00000106,-0.00000033,-0.00399931,0.00000001
 ,0.,0.00009459,0.,0.,0.00000634,0.00000121,-0.00000057,-0.00423112,0.0
 0006813,-0.00003623,0.02545854,-0.03261709,0.01375129,0.02954180,-0.00
 030410,0.00017441,-0.00010256,0.00021715,0.00082647,-0.00031066,-0.000
 10371,-0.00004834,0.00007478,-0.00170038,-0.00051224,-0.00060251,-0.00
 016717,0.00000264,-0.00001322,0.00072067,-0.00028378,0.00027756,0.0046
 2472,0.00742269,0.00109614,0.00033589,-0.00055152,0.00004563,0.0000254
 4,0.00002234,0.00002193,0.00006921,-0.00004653,-0.00004467,0.00092192,
 -0.00090128,-0.00011696,-0.00041902,-0.00028454,-0.00037906,-0.0000517
 4,0.00002751,-0.00002086,-0.00003019,-0.00005999,0.00002127,-0.0714893
 3,0.03383383,0.06173748,0.00001435,-0.00002064,0.00006670,0.00000417,-
 0.00000971,0.00000015,0.00001097,0.00000659,0.00000304,-0.00027316,-0.
 00088085,0.00080471,-0.00001408,-0.00005194,0.00002850,-0.00000976,-0.
 00000229,-0.00000285,-0.00001332,-0.00000063,0.00000321,0.09039377,0.0
 0433373,0.00197102,0.00115790,0.00009457,-0.00022244,0.00005320,0.0000
 6254,0.00088239,-0.00002528,-0.00014279,0.00004194,0.00001554,-0.00021
 604,-0.00040881,-0.00017139,0.00000658,-0.00001013,-0.00002951,-0.0003
 3811,0.00030963,0.00004812,-0.00044336,0.00017179,0.00096076,0.0009044
 1,-0.00032190,-0.00004080,0.00011714,-0.00001185,0.00000518,0.00005981
 ,0.00002506,-0.00001597,0.00085910,0.00071141,0.00022477,-0.00096530,-
 0.00055089,-0.00042127,-0.00004395,0.00006666,0.00000029,-0.00001937,-
 0.00006046,0.00000722,0.03687242,-0.10699443,-0.10186519,0.00001624,0.
 00000056,0.00006862,-0.00000768,0.00000206,-0.00000400,-0.00000402,-0.
 00000647,-0.00000497,-0.00088414,-0.00109593,0.00130790,-0.00001154,0.
 00003593,0.00005902,0.00000943,0.00000400,-0.00000210,0.00001018,-0.00
 000273,-0.00000024,-0.04420620,0.10990282,0.00525786,0.00341134,0.0067
 8498,0.00010952,0.00000780,0.00003870,-0.00005467,0.00006472,-0.000031
 46,-0.00000065,0.00001831,0.00002287,0.00035717,0.00020017,-0.00022894
 ,0.00001001,0.00003848,-0.00000582,-0.00034006,0.00002080,-0.00000078,
 -0.00096450,-0.00212240,0.00057678,0.00019303,-0.00000884,-0.00003807,
 0.00003669,0.00000035,0.00000505,0.00000966,0.00000609,-0.00000144,0.0
 0109486,-0.00022204,-0.00014038,-0.00066541,0.00003590,-0.00010230,-0.
 00000164,0.00003376,-0.00000580,-0.00002580,-0.00000251,0.00000888,0.0
 6643178,-0.10094750,-0.23110799,-0.00005648,0.00000099,0.00002495,0.00
 000066,0.00000463,-0.00000256,-0.00000735,-0.00000016,-0.00000304,-0.0
 0042264,0.00052534,-0.00012387,0.00002529,0.00003893,0.00001252,0.0000
 0179,0.00000153,-0.00000111,0.00000459,-0.00000033,-0.00000274,-0.0768
 8935,0.11073725,0.24269053,-0.02771198,-0.03900102,-0.00000022,0.00010
 516,0.00052389,-0.00000020,-0.00026006,0.00033189,0.00000011,-0.000071
 28,-0.00016200,0.00000009,-0.00088339,-0.00133526,0.00000032,-0.000065
 51,0.00007852,-0.00000004,0.00027379,-0.00077852,-0.00000009,-0.004382
 73,0.00255306,-0.00000070,0.00000459,-0.00000845,-0.00000003,-0.000010
 00,0.00004816,-0.00000002,0.00002689,-0.00002515,0.00000002,-0.0007135
 3,0.00088617,0.00000022,0.00035511,-0.00026122,0.,-0.00002820,0.000011
 49,0.,-0.00002688,-0.00001809,-0.00000002,-0.06508763,-0.06930984,-0.0
 0000514,0.00003886,-0.00001726,-0.00000004,0.00000679,-0.00000168,0.,-
 0.00000390,0.00000531,0.,0.00076357,0.00003218,-0.00000010,-0.00003242
 ,-0.00005229,0.00000002,-0.00000856,0.00000179,0.,-0.00000687,-0.00000
 063,0.,0.00445227,0.00914329,-0.00137176,0.08881323,-0.00056640,0.0048
 2503,0.00000091,-0.00006725,0.00018903,-0.00000006,0.00001410,-0.00019
 700,0.00000013,0.00005285,-0.00002808,-0.00000005,-0.00009601,0.000232
 16,-0.00000004,-0.00007199,0.00003095,0.00000002,0.00015565,-0.0002569
 3,0.00000001,0.00182834,0.00177417,-0.00000046,-0.00024644,0.00003341,
 0.00000006,-0.00003001,0.00002047,0.,0.00000335,-0.00002593,0.,0.00047
 353,-0.00055460,-0.00000015,-0.00004097,0.00027548,-0.00000010,0.00000
 525,0.00000379,0.,-0.00002427,0.00000703,-0.00000002,-0.08298610,-0.31
 263497,-0.00001605,-0.00004087,-0.00000542,0.,0.00000763,-0.00000164,0
 .,0.00000127,0.00000710,0.,-0.00057684,0.00011692,0.00000020,0.0000150
 4,-0.00000595,0.,-0.00000965,-0.00000267,0.,-0.00000867,0.00000184,0.,
 -0.00300072,-0.01120258,0.00122517,0.08821106,0.32860371,0.00000077,0.
 00000178,0.00038167,0.,-0.00000005,-0.00008684,0.00000004,0.00000018,0
 .00005187,-0.00000003,-0.00000002,-0.00011949,-0.00000009,0.,0.0001978
 8,0.00000002,-0.00000001,0.00004199,-0.00000003,0.00000006,0.00005329,
 0.00000074,0.00000027,0.00049386,0.00000013,-0.00000011,-0.00006354,0.
 ,0.,-0.00000049,0.,0.00000002,-0.00002504,0.00000028,0.00000018,0.0002
 9427,-0.00000012,-0.00000006,0.00021590,-0.00000002,0.,0.00001411,0.00
 000001,0.,0.00000909,-0.00000589,-0.00001687,-0.04968934,0.,0.,-0.0000
 2508,0.,0.,0.00000451,0.,0.,0.00000642,0.,0.00000006,-0.00043050,0.,0.
 ,0.00004482,0.,0.,-0.00000167,0.,0.,-0.00000017,-0.00797048,-0.0251371
 7,0.00136107,0.00000446,0.00001751,0.04590700,-0.03261967,0.01375444,-
 0.02953704,-0.00030394,0.00017435,0.00010261,0.00021764,0.00082681,0.0
 0031007,-0.00010368,-0.00004823,-0.00007452,-0.00170105,-0.00051199,0.
 00060375,-0.00016714,0.00000264,0.00001269,0.00072032,-0.00028358,-0.0
 0027786,0.00462596,0.00742338,-0.00109728,0.00033618,-0.00055187,-0.00
 004554,0.00002549,0.00002233,-0.00002196,0.00006910,-0.00004657,0.0000
 4481,0.00092191,-0.00090091,0.00011708,-0.00041929,-0.00028470,0.00037
 904,-0.00005174,0.00002749,0.00002090,-0.00003018,-0.00006000,-0.00002
 130,-0.07149696,0.03384812,-0.06174100,0.00001435,-0.00002064,-0.00006
 673,0.00000418,-0.00000970,-0.00000014,0.00001095,0.00000658,-0.000003
 05,-0.00027330,-0.00088085,-0.00080468,-0.00001410,-0.00005193,-0.0000
 2852,-0.00000976,-0.00000229,0.00000282,-0.00001332,-0.00000063,-0.000
 00320,0.00540252,-0.00520693,0.00726741,0.00445268,-0.00300188,0.00797
 017,0.09040284,0.00433402,0.00196979,-0.00115750,0.00009464,-0.0002225
 0,-0.00005299,0.00006271,0.00088266,0.00002511,-0.00014279,0.00004198,
 -0.00001540,-0.00021630,-0.00040879,0.00017126,0.00000659,-0.00001005,
 0.00002959,-0.00033817,0.00030977,-0.00004833,-0.00044336,0.00017204,-
 0.00096133,0.00090461,-0.00032210,0.00004048,0.00011717,-0.00001185,-0
 .00000523,0.00005972,0.00002502,0.00001604,0.00085882,0.00071123,-0.00
 022486,-0.00096553,-0.00055096,0.00042154,-0.00004394,0.00006664,-0.00
 000029,-0.00001939,-0.00006047,-0.00000723,0.03688882,-0.10702318,0.10
 188162,0.00001623,0.00000054,-0.00006852,-0.00000767,0.00000207,0.0000
 0400,-0.00000403,-0.00000648,0.00000499,-0.00088476,-0.00109620,-0.001
 30812,-0.00001156,0.00003593,-0.00005904,0.00000943,0.00000400,0.00000
 211,0.00001018,-0.00000274,0.00000024,-0.00520660,0.00676336,-0.013067
 78,0.00914460,-0.01120532,0.02513424,-0.04422342,0.10993561,-0.0052547
 0,-0.00341206,0.00678545,-0.00010942,-0.00000781,0.00003881,0.00005464
 ,-0.00006481,-0.00003150,0.00000066,-0.00001830,0.00002281,-0.00035709
 ,-0.00020007,-0.00022890,-0.00000997,-0.00003850,-0.00000574,0.0003398
 7,-0.00002083,-0.00000098,0.00096406,0.00212188,0.00057699,-0.00019314
 ,0.00000886,-0.00003793,-0.00003669,-0.00000036,0.00000503,-0.00000969
 ,-0.00000608,-0.00000145,-0.00109477,0.00022192,-0.00013990,0.00066552
 ,-0.00003577,-0.00010251,0.00000166,-0.00003377,-0.00000578,0.00002581
 ,0.00000251,0.00000886,-0.06643577,0.10096382,-0.23107243,0.00005649,-
 0.00000098,0.00002488,-0.00000066,-0.00000462,-0.00000256,0.00000735,0
 .00000016,-0.00000305,0.00042263,-0.00052548,-0.00012413,-0.00002528,-
 0.00003892,0.00001254,-0.00000179,-0.00000153,-0.00000112,-0.00000459,
 0.00000033,-0.00000274,-0.00726969,0.01307212,-0.01973002,0.00137312,-
 0.00122709,0.00136441,0.07689146,-0.11075461,0.24265094\\-0.00013969,-
 0.00007275,0.00000173,0.00003435,0.00016859,0.00006671,-0.00000342,-0.
 00012523,0.00000248,0.00000273,-0.00000186,0.00000022,0.00005524,0.000
 04906,0.00006203,-0.00002996,0.00004531,0.00006477,-0.00007313,-0.0000
 5287,-0.00019749,0.00010689,-0.00007588,0.00001198,0.00001340,-0.00000
 296,-0.00000845,-0.00006760,0.00003292,-0.00000794,0.00001831,-0.00005
 312,0.00001345,-0.00001374,-0.00010935,-0.00000282,0.00001306,0.000091
 49,-0.00000259,0.00002589,0.00004608,-0.00000169,-0.00004316,-0.000045
 37,-0.00000383,0.00002978,0.00008932,-0.00000100,-0.00002503,0.0000006
 7,0.00000103,-0.00000317,-0.00000968,0.00000137,0.00000776,-0.00000133
 ,-0.00000087,0.00000679,-0.00002204,-0.00000122,-0.00000187,0.00005308
 ,0.00000188,0.00001705,0.00002750,0.00000190,0.00000610,-0.00001885,-0
 .00000197,-0.00000932,-0.00000258,0.00004524,0.00008137,-0.00000835,-0
 .00000026,-0.00000862,-0.00000182,-0.00004466\\\@
 The archive entry for this job was punched.


 "THE ACADEMIC HIERARCHY"


 THE PRESIDENT:
   LEAPS TALL BUILDINGS IN A SINGLE BOUND,
     IS MORE POWERFUL THAN A LOCOMOTIVE,
       IS FASTER THAN A SPEEDING BULLET,
         WALKS ON WATER,
           GIVES POLICY TO GOD.

 THE VICE PRESIDENT FOR ACADEMIC AFFAIRS:
   LEAPS SHORT BUILDINGS IN A SINGLE BOUND,
     IS MORE POWERFUL THAN A SWITCH ENGINE,
       IS JUST AS FAST AS A SPEEDING BULLET,
         WALKS ON WATER IF SEA IS CALM,
           TALKS WITH GOD.

 PROFESSOR:
   LEAPS SHORT BUILDINGS WITH A RUNNING START AND FAVORABLE WINDS,
     IS ALMOST AS POWERFUL AS A SWITCH ENGINE,
       CAN FIRE A SPEEDING BULLET,
         WALKS ON WATER IN AN INDOOR SWIMMING POOL,
          TALKS WITH GOD IF SPECIAL REQUEST IS APPROVED.

 ASSOCIATE PROFESSOR:
   BARELY CLEARS A QUONSET HUT,
     LOSES TUG OF WAR WITH LOCOMOTIVE,
       MISFIRES FREQUENTLY,
         SWIMS WELL,
           IS OCCASIONALLY ADDRESSED BY GOD.

 ASSISTANT PROFESSOR:
   MAKES HIGH MARKS ON WALLS WHEN TRYING TO LEAP TALL BUILDINGS,
     IS RUN OVER BY LOCOMOTIVES,
       CAN SOMETIMES HANDLE A GUN WITHOUT INFLICTING SELF INJURY,
         DOG PADDLES,
           TALKS TO ANIMALS.

 GRADUATE STUDENT:
   RUNS INTO BUILDINGS,
     RECOGNIZES LOCOMOTIVES TWO OUT OF THREE TIMES,
       IS NOT ISSUED AMMUNITION,
         CAN STAY AFLOAT WITH A LIFE JACKET,
           TALKS TO WALLS.

 UNDERGRADUATE AND WORK STUDY STUDENT:
   FALLS OVER DOORSTEP WHEN TRYING TO ENTER BUILDINGS,
     SAYS, "LOOK AT THE CHOO-CHOO,"
       WETS HIMSELF WITH A WATER PISTOL,
        PLAYS IN MUD PUDDLES,
          MUMBLES TO HIMSELF.

 DEPARTMENT SECRETARY:
   LIFTS TALL BUILDINGS AND WALKS UNDER THEM,
     KICKS LOCOMOTIVES OFF THE TRACKS,
       CATCHES SPEEDING BULLETS IN HER TEETH AND EATS THEM,
         FREEZES WATER WITH A SINGLE GLANCE,
           IS GOD.
 Job cpu time:       0 days  5 hours 41 minutes 57.3 seconds.
 Elapsed time:       0 days  0 hours 15 minutes 12.0 seconds.
 File lengths (MBytes):  RWF=    417 Int=      0 D2E=      0 Chk=     15 Scr=      1
 Normal termination of Gaussian 16 at Thu Dec  7 13:03:41 2023.
