 Entering Gaussian System, Link 0=g16
 Input=/home/exlonk/in_progress/3381.inp
 Output=/home/exlonk/in_progress/3381.log
 Initial command:
 /opt/gaussian/g16-c01/g16/l1.exe "/lustre/tmp/slurm/2183037/Gau-580178.inp" -scrdir="/lustre/tmp/slurm/2183037/"
 Default CPUs for threads: 0-4,7-9,13-15,19-20,24-28,31-33,37-39,43-44
 Default is to use a total of  26 processors:
                               26 via shared-memory
                                1 via Linda
 Entering Link 1 = /opt/gaussian/g16-c01/g16/l1.exe PID=    580179.
  
 Copyright (c) 1988-2019, Gaussian, Inc.  All Rights Reserved.
  
 This is part of the Gaussian(R) 16 program.  It is based on
 the Gaussian(R) 09 system (copyright 2009, Gaussian, Inc.),
 the Gaussian(R) 03 system (copyright 2003, Gaussian, Inc.),
 the Gaussian(R) 98 system (copyright 1998, Gaussian, Inc.),
 the Gaussian(R) 94 system (copyright 1995, Gaussian, Inc.),
 the Gaussian 92(TM) system (copyright 1992, Gaussian, Inc.),
 the Gaussian 90(TM) system (copyright 1990, Gaussian, Inc.),
 the Gaussian 88(TM) system (copyright 1988, Gaussian, Inc.),
 the Gaussian 86(TM) system (copyright 1986, Carnegie Mellon
 University), and the Gaussian 82(TM) system (copyright 1983,
 Carnegie Mellon University). Gaussian is a federally registered
 trademark of Gaussian, Inc.
  
 This software contains proprietary and confidential information,
 including trade secrets, belonging to Gaussian, Inc.
  
 This software is provided under written license and may be
 used, copied, transmitted, or stored only in accord with that
 written license.
  
 The following legend is applicable only to US Government
 contracts under FAR:
  
                    RESTRICTED RIGHTS LEGEND
  
 Use, reproduction and disclosure by the US Government is
 subject to restrictions as set forth in subparagraphs (a)
 and (c) of the Commercial Computer Software - Restricted
 Rights clause in FAR 52.227-19.
  
 Gaussian, Inc.
 340 Quinnipiac St., Bldg. 40, Wallingford CT 06492
  
  
 ---------------------------------------------------------------
 Warning -- This program may not be used in any manner that
 competes with the business of Gaussian, Inc. or will provide
 assistance to any competitor of Gaussian, Inc.  The licensee
 of this program is prohibited from giving any competitor of
 Gaussian, Inc. access to this program.  By using this program,
 the user acknowledges that Gaussian, Inc. is engaged in the
 business of creating and licensing software in the field of
 computational chemistry and represents and warrants to the
 licensee that it is not a competitor of Gaussian, Inc. and that
 it will not use this program in any manner prohibited above.
 ---------------------------------------------------------------
  

 Cite this work as:
 Gaussian 16, Revision C.01,
 M. J. Frisch, G. W. Trucks, H. B. Schlegel, G. E. Scuseria, 
 M. A. Robb, J. R. Cheeseman, G. Scalmani, V. Barone, 
 G. A. Petersson, H. Nakatsuji, X. Li, M. Caricato, A. V. Marenich, 
 J. Bloino, B. G. Janesko, R. Gomperts, B. Mennucci, H. P. Hratchian, 
 J. V. Ortiz, A. F. Izmaylov, J. L. Sonnenberg, D. Williams-Young, 
 F. Ding, F. Lipparini, F. Egidi, J. Goings, B. Peng, A. Petrone, 
 T. Henderson, D. Ranasinghe, V. G. Zakrzewski, J. Gao, N. Rega, 
 G. Zheng, W. Liang, M. Hada, M. Ehara, K. Toyota, R. Fukuda, 
 J. Hasegawa, M. Ishida, T. Nakajima, Y. Honda, O. Kitao, H. Nakai, 
 T. Vreven, K. Throssell, J. A. Montgomery, Jr., J. E. Peralta, 
 F. Ogliaro, M. J. Bearpark, J. J. Heyd, E. N. Brothers, K. N. Kudin, 
 V. N. Staroverov, T. A. Keith, R. Kobayashi, J. Normand, 
 K. Raghavachari, A. P. Rendell, J. C. Burant, S. S. Iyengar, 
 J. Tomasi, M. Cossi, J. M. Millam, M. Klene, C. Adamo, R. Cammi, 
 J. W. Ochterski, R. L. Martin, K. Morokuma, O. Farkas, 
 J. B. Foresman, and D. J. Fox, Gaussian, Inc., Wallingford CT, 2019.
 
 ******************************************
 Gaussian 16:  EM64L-G16RevC.01  3-Jul-2019
                 5-Dec-2023 
 ******************************************
 %nproc=26
 Will use up to   26 processors via shared memory.
 %mem=16GB
 %chk=/home/exlonk/in_progress/3381.chk
 ------------------------------
 #p MN15/6-311++G(d,p) opt freq
 ------------------------------
 1/18=20,19=15,26=3,38=1/1,3;
 2/9=110,12=2,17=6,18=5,40=1/2;
 3/5=4,6=6,7=1111,11=2,25=1,30=1,71=1,74=-73/1,2,3;
 4//1;
 5/5=2,38=5/2;
 6/7=2,8=2,9=2,10=2,28=1/1;
 7//1,2,3,16;
 1/18=20,19=15,26=3/3(2);
 2/9=110/2;
 99//99;
 2/9=110/2;
 3/5=4,6=6,7=1111,11=2,25=1,30=1,71=1,74=-73/1,2,3;
 4/5=5,16=3,69=1/1;
 5/5=2,38=5/2;
 7//1,2,3,16;
 1/18=20,19=15,26=3/3(-5);
 2/9=110/2;
 6/7=2,8=2,9=2,10=2,19=2,28=1/1;
 99/9=1/99;
 Leave Link    1 at Tue Dec  5 19:26:55 2023, MaxMem=  2147483648 cpu:               7.2 elap:               0.3
 (Enter /opt/gaussian/g16-c01/g16/l101.exe)
 ---------------
 name file: 3381
 ---------------
 Symbolic Z-matrix:
 Charge =  0 Multiplicity = 1
 C                    -2.91599   2.10458  -2.43839 
 C                    -2.77388   0.657    -2.20484 
 O                    -2.80974  -0.11556  -3.12797 
 B                    -2.57484   0.11164  -0.7519 
 C                    -3.35142   1.01801   0.28341 
 C                    -3.02051   0.87202   1.71571 
 O                    -4.19257   1.81048  -0.07111 
 O                    -3.13619  -1.25502  -0.59628 
 C                    -2.30729  -2.28566  -0.19971 
 C                    -2.81384  -3.68242  -0.02569 
 C                    -1.02514  -2.08085   0.0441 
 C                    -0.39897  -0.77114  -0.08537 
 C                     1.00632  -0.54367   0.18124 
 C                     1.8299   -1.56365   0.57441 
 C                     3.17872  -1.35729   0.83275 
 C                     3.68176  -0.07476   0.68143 
 C                     5.00913   0.11364   0.9387 
 C                     5.55205   1.36663   0.80237 
 C                     4.74784   2.43593   0.40339 
 C                     3.4102    2.22626   0.1482 
 C                     2.87867   0.96375   0.28903 
 C                     1.52416   0.72034   0.03703 
 O                    -1.1442    0.18528  -0.44804 
 H                    -2.53542   2.72406  -1.60568 
 H                    -2.3566    2.44611  -3.35627 
 H                    -3.98286   2.38753  -2.57581 
 H                    -2.16029   1.56973   1.91571 
 H                    -2.66414  -0.16207   1.89587 
 H                    -3.87991   1.09795   2.37899 
 H                    -2.73146  -3.95055   1.05166 
 H                    -2.13387  -4.36688  -0.57439 
 H                    -3.84463  -3.79593  -0.41129 
 H                    -0.41614  -2.94802   0.35807 
 H                     1.48921  -2.58109   0.70747 
 H                     3.76705  -2.20293   1.13765 
 H                     5.65076  -0.72392   1.25382 
 H                     6.59603   1.57912   0.9915 
 H                     5.13826   3.43791   0.28461 
 H                     2.76747   3.05734  -0.16584 
 H                     0.94237   1.5761   -0.2685 
 
 ITRead=  0  0  0  0  0  0  0  0  0  0  0  0  0  0  0  0  0  0  0  0
 ITRead=  0  0  0  0  0  0  0  0  0  0  0  0  0  0  0  0  0  0  0  0
 MicOpt= -1 -1 -1 -1 -1 -1 -1 -1 -1 -1 -1 -1 -1 -1 -1 -1 -1 -1 -1 -1
 MicOpt= -1 -1 -1 -1 -1 -1 -1 -1 -1 -1 -1 -1 -1 -1 -1 -1 -1 -1 -1 -1
 NAtoms=     40 NQM=       40 NQMF=       0 NMMI=      0 NMMIF=      0
                NMic=       0 NMicF=      0.
                    Isotopes and Nuclear Properties:
 (Nuclear quadrupole moments (NQMom) in fm**2, nuclear magnetic moments (NMagM)
  in nuclear magnetons)

  Atom         1           2           3           4           5           6           7           8           9          10
 IAtWgt=          12          12          16          11          12          12          16          16          12          12
 AtmWgt=  12.0000000  12.0000000  15.9949146  11.0093053  12.0000000  12.0000000  15.9949146  15.9949146  12.0000000  12.0000000
 NucSpn=           0           0           0           3           0           0           0           0           0           0
 AtZEff=  -0.0000000  -0.0000000  -0.0000000  -0.0000000  -0.0000000  -0.0000000  -0.0000000  -0.0000000  -0.0000000  -0.0000000
 NQMom=    0.0000000   0.0000000   0.0000000   4.0590000   0.0000000   0.0000000   0.0000000   0.0000000   0.0000000   0.0000000
 NMagM=    0.0000000   0.0000000   0.0000000   2.6886370   0.0000000   0.0000000   0.0000000   0.0000000   0.0000000   0.0000000
 AtZNuc=   6.0000000   6.0000000   8.0000000   5.0000000   6.0000000   6.0000000   8.0000000   8.0000000   6.0000000   6.0000000

  Atom        11          12          13          14          15          16          17          18          19          20
 IAtWgt=          12          12          12          12          12          12          12          12          12          12
 AtmWgt=  12.0000000  12.0000000  12.0000000  12.0000000  12.0000000  12.0000000  12.0000000  12.0000000  12.0000000  12.0000000
 NucSpn=           0           0           0           0           0           0           0           0           0           0
 AtZEff=  -0.0000000  -0.0000000  -0.0000000  -0.0000000  -0.0000000  -0.0000000  -0.0000000  -0.0000000  -0.0000000  -0.0000000
 NQMom=    0.0000000   0.0000000   0.0000000   0.0000000   0.0000000   0.0000000   0.0000000   0.0000000   0.0000000   0.0000000
 NMagM=    0.0000000   0.0000000   0.0000000   0.0000000   0.0000000   0.0000000   0.0000000   0.0000000   0.0000000   0.0000000
 AtZNuc=   6.0000000   6.0000000   6.0000000   6.0000000   6.0000000   6.0000000   6.0000000   6.0000000   6.0000000   6.0000000

  Atom        21          22          23          24          25          26          27          28          29          30
 IAtWgt=          12          12          16           1           1           1           1           1           1           1
 AtmWgt=  12.0000000  12.0000000  15.9949146   1.0078250   1.0078250   1.0078250   1.0078250   1.0078250   1.0078250   1.0078250
 NucSpn=           0           0           0           1           1           1           1           1           1           1
 AtZEff=  -0.0000000  -0.0000000  -0.0000000  -0.0000000  -0.0000000  -0.0000000  -0.0000000  -0.0000000  -0.0000000  -0.0000000
 NQMom=    0.0000000   0.0000000   0.0000000   0.0000000   0.0000000   0.0000000   0.0000000   0.0000000   0.0000000   0.0000000
 NMagM=    0.0000000   0.0000000   0.0000000   2.7928460   2.7928460   2.7928460   2.7928460   2.7928460   2.7928460   2.7928460
 AtZNuc=   6.0000000   6.0000000   8.0000000   1.0000000   1.0000000   1.0000000   1.0000000   1.0000000   1.0000000   1.0000000

  Atom        31          32          33          34          35          36          37          38          39          40
 IAtWgt=           1           1           1           1           1           1           1           1           1           1
 AtmWgt=   1.0078250   1.0078250   1.0078250   1.0078250   1.0078250   1.0078250   1.0078250   1.0078250   1.0078250   1.0078250
 NucSpn=           1           1           1           1           1           1           1           1           1           1
 AtZEff=  -0.0000000  -0.0000000  -0.0000000  -0.0000000  -0.0000000  -0.0000000  -0.0000000  -0.0000000  -0.0000000  -0.0000000
 NQMom=    0.0000000   0.0000000   0.0000000   0.0000000   0.0000000   0.0000000   0.0000000   0.0000000   0.0000000   0.0000000
 NMagM=    2.7928460   2.7928460   2.7928460   2.7928460   2.7928460   2.7928460   2.7928460   2.7928460   2.7928460   2.7928460
 AtZNuc=   1.0000000   1.0000000   1.0000000   1.0000000   1.0000000   1.0000000   1.0000000   1.0000000   1.0000000   1.0000000
 Leave Link  101 at Tue Dec  5 19:26:56 2023, MaxMem=  2147483648 cpu:               8.7 elap:               0.4
 (Enter /opt/gaussian/g16-c01/g16/l103.exe)

 GradGradGradGradGradGradGradGradGradGradGradGradGradGradGradGradGradGrad
 Berny optimization.
 Initialization pass.
                           ----------------------------
                           !    Initial Parameters    !
                           ! (Angstroms and Degrees)  !
 --------------------------                            --------------------------
 ! Name  Definition              Value          Derivative Info.                !
 --------------------------------------------------------------------------------
 ! R1    R(1,2)                  1.4732         estimate D2E/DX2                !
 ! R2    R(1,24)                 1.1054         estimate D2E/DX2                !
 ! R3    R(1,25)                 1.1279         estimate D2E/DX2                !
 ! R4    R(1,26)                 1.1123         estimate D2E/DX2                !
 ! R5    R(2,3)                  1.2043         estimate D2E/DX2                !
 ! R6    R(2,4)                  1.5646         estimate D2E/DX2                !
 ! R7    R(4,5)                  1.58           estimate D2E/DX2                !
 ! R8    R(4,8)                  1.4856         estimate D2E/DX2                !
 ! R9    R(4,23)                 1.4644         estimate D2E/DX2                !
 ! R10   R(5,6)                  1.4773         estimate D2E/DX2                !
 ! R11   R(5,7)                  1.2088         estimate D2E/DX2                !
 ! R12   R(6,27)                 1.1255         estimate D2E/DX2                !
 ! R13   R(6,28)                 1.1085         estimate D2E/DX2                !
 ! R14   R(6,29)                 1.1089         estimate D2E/DX2                !
 ! R15   R(8,9)                  1.3808         estimate D2E/DX2                !
 ! R16   R(9,10)                 1.4959         estimate D2E/DX2                !
 ! R17   R(9,11)                 1.3211         estimate D2E/DX2                !
 ! R18   R(10,30)                1.1133         estimate D2E/DX2                !
 ! R19   R(10,31)                1.1099         estimate D2E/DX2                !
 ! R20   R(10,32)                1.1064         estimate D2E/DX2                !
 ! R21   R(11,12)                1.4575         estimate D2E/DX2                !
 ! R22   R(11,33)                1.1052         estimate D2E/DX2                !
 ! R23   R(12,13)                1.4483         estimate D2E/DX2                !
 ! R24   R(12,23)                1.2656         estimate D2E/DX2                !
 ! R25   R(13,14)                1.3687         estimate D2E/DX2                !
 ! R26   R(13,22)                1.3736         estimate D2E/DX2                !
 ! R27   R(14,15)                1.3888         estimate D2E/DX2                !
 ! R28   R(14,34)                1.0812         estimate D2E/DX2                !
 ! R29   R(15,16)                1.3859         estimate D2E/DX2                !
 ! R30   R(15,35)                1.0743         estimate D2E/DX2                !
 ! R31   R(16,17)                1.3651         estimate D2E/DX2                !
 ! R32   R(16,21)                1.3702         estimate D2E/DX2                !
 ! R33   R(17,18)                1.3723         estimate D2E/DX2                !
 ! R34   R(17,36)                1.1011         estimate D2E/DX2                !
 ! R35   R(18,19)                1.3962         estimate D2E/DX2                !
 ! R36   R(18,37)                1.082          estimate D2E/DX2                !
 ! R37   R(19,20)                1.3778         estimate D2E/DX2                !
 ! R38   R(19,38)                1.0819         estimate D2E/DX2                !
 ! R39   R(20,21)                1.3771         estimate D2E/DX2                !
 ! R40   R(20,39)                1.0965         estimate D2E/DX2                !
 ! R41   R(21,22)                1.3991         estimate D2E/DX2                !
 ! R42   R(22,40)                1.079          estimate D2E/DX2                !
 ! A1    A(2,1,24)             113.4549         estimate D2E/DX2                !
 ! A2    A(2,1,25)             112.255          estimate D2E/DX2                !
 ! A3    A(2,1,26)             111.2281         estimate D2E/DX2                !
 ! A4    A(24,1,25)            105.8186         estimate D2E/DX2                !
 ! A5    A(24,1,26)            106.3039         estimate D2E/DX2                !
 ! A6    A(25,1,26)            107.3466         estimate D2E/DX2                !
 ! A7    A(1,2,3)              120.3963         estimate D2E/DX2                !
 ! A8    A(1,2,4)              120.1318         estimate D2E/DX2                !
 ! A9    A(3,2,4)              119.4719         estimate D2E/DX2                !
 ! A10   A(2,4,5)              110.2431         estimate D2E/DX2                !
 ! A11   A(2,4,8)              111.7063         estimate D2E/DX2                !
 ! A12   A(2,4,23)             107.424          estimate D2E/DX2                !
 ! A13   A(5,4,8)              105.8638         estimate D2E/DX2                !
 ! A14   A(5,4,23)             108.3822         estimate D2E/DX2                !
 ! A15   A(8,4,23)             113.1831         estimate D2E/DX2                !
 ! A16   A(4,5,6)              117.9387         estimate D2E/DX2                !
 ! A17   A(4,5,7)              121.729          estimate D2E/DX2                !
 ! A18   A(6,5,7)              120.3324         estimate D2E/DX2                !
 ! A19   A(5,6,27)             106.3936         estimate D2E/DX2                !
 ! A20   A(5,6,28)             108.7705         estimate D2E/DX2                !
 ! A21   A(5,6,29)             112.7194         estimate D2E/DX2                !
 ! A22   A(27,6,28)            107.6801         estimate D2E/DX2                !
 ! A23   A(27,6,29)            111.0852         estimate D2E/DX2                !
 ! A24   A(28,6,29)            109.9995         estimate D2E/DX2                !
 ! A25   A(4,8,9)              119.334          estimate D2E/DX2                !
 ! A26   A(8,9,10)             121.8077         estimate D2E/DX2                !
 ! A27   A(8,9,11)             121.3254         estimate D2E/DX2                !
 ! A28   A(10,9,11)            116.8669         estimate D2E/DX2                !
 ! A29   A(9,10,30)            108.2043         estimate D2E/DX2                !
 ! A30   A(9,10,31)            108.11           estimate D2E/DX2                !
 ! A31   A(9,10,32)            111.7606         estimate D2E/DX2                !
 ! A32   A(30,10,31)           106.5322         estimate D2E/DX2                !
 ! A33   A(30,10,32)           112.4267         estimate D2E/DX2                !
 ! A34   A(31,10,32)           109.585          estimate D2E/DX2                !
 ! A35   A(9,11,12)            122.676          estimate D2E/DX2                !
 ! A36   A(9,11,33)            117.7475         estimate D2E/DX2                !
 ! A37   A(12,11,33)           119.5765         estimate D2E/DX2                !
 ! A38   A(11,12,13)           122.7961         estimate D2E/DX2                !
 ! A39   A(11,12,23)           116.8453         estimate D2E/DX2                !
 ! A40   A(13,12,23)           120.3586         estimate D2E/DX2                !
 ! A41   A(12,13,14)           121.3112         estimate D2E/DX2                !
 ! A42   A(12,13,22)           119.407          estimate D2E/DX2                !
 ! A43   A(14,13,22)           119.2818         estimate D2E/DX2                !
 ! A44   A(13,14,15)           121.8119         estimate D2E/DX2                !
 ! A45   A(13,14,34)           123.1648         estimate D2E/DX2                !
 ! A46   A(15,14,34)           115.0233         estimate D2E/DX2                !
 ! A47   A(14,15,16)           118.0163         estimate D2E/DX2                !
 ! A48   A(14,15,35)           117.8857         estimate D2E/DX2                !
 ! A49   A(16,15,35)           124.098          estimate D2E/DX2                !
 ! A50   A(15,16,17)           117.3906         estimate D2E/DX2                !
 ! A51   A(15,16,21)           121.3258         estimate D2E/DX2                !
 ! A52   A(17,16,21)           121.2837         estimate D2E/DX2                !
 ! A53   A(16,17,18)           119.4692         estimate D2E/DX2                !
 ! A54   A(16,17,36)           121.0336         estimate D2E/DX2                !
 ! A55   A(18,17,36)           119.4973         estimate D2E/DX2                !
 ! A56   A(17,18,19)           119.9851         estimate D2E/DX2                !
 ! A57   A(17,18,37)           122.9318         estimate D2E/DX2                !
 ! A58   A(19,18,37)           117.0831         estimate D2E/DX2                !
 ! A59   A(18,19,20)           119.7083         estimate D2E/DX2                !
 ! A60   A(18,19,38)           122.1961         estimate D2E/DX2                !
 ! A61   A(20,19,38)           118.0956         estimate D2E/DX2                !
 ! A62   A(19,20,21)           119.6904         estimate D2E/DX2                !
 ! A63   A(19,20,39)           120.4479         estimate D2E/DX2                !
 ! A64   A(21,20,39)           119.8617         estimate D2E/DX2                !
 ! A65   A(16,21,20)           119.8634         estimate D2E/DX2                !
 ! A66   A(16,21,22)           119.154          estimate D2E/DX2                !
 ! A67   A(20,21,22)           120.9827         estimate D2E/DX2                !
 ! A68   A(13,22,21)           120.4102         estimate D2E/DX2                !
 ! A69   A(13,22,40)           123.8016         estimate D2E/DX2                !
 ! A70   A(21,22,40)           115.7881         estimate D2E/DX2                !
 ! A71   A(4,23,12)            126.6363         estimate D2E/DX2                !
 ! D1    D(24,1,2,3)          -160.4745         estimate D2E/DX2                !
 ! D2    D(24,1,2,4)            19.5257         estimate D2E/DX2                !
 ! D3    D(25,1,2,3)           -40.5665         estimate D2E/DX2                !
 ! D4    D(25,1,2,4)           139.4336         estimate D2E/DX2                !
 ! D5    D(26,1,2,3)            79.7352         estimate D2E/DX2                !
 ! D6    D(26,1,2,4)          -100.2646         estimate D2E/DX2                !
 ! D7    D(1,2,4,5)             32.953          estimate D2E/DX2                !
 ! D8    D(1,2,4,8)            150.365          estimate D2E/DX2                !
 ! D9    D(1,2,4,23)           -84.9527         estimate D2E/DX2                !
 ! D10   D(3,2,4,5)           -147.0469         estimate D2E/DX2                !
 ! D11   D(3,2,4,8)            -29.6348         estimate D2E/DX2                !
 ! D12   D(3,2,4,23)            95.0474         estimate D2E/DX2                !
 ! D13   D(2,4,5,6)           -165.1458         estimate D2E/DX2                !
 ! D14   D(2,4,5,7)             14.8544         estimate D2E/DX2                !
 ! D15   D(8,4,5,6)             73.8832         estimate D2E/DX2                !
 ! D16   D(8,4,5,7)           -106.1166         estimate D2E/DX2                !
 ! D17   D(23,4,5,6)           -47.832          estimate D2E/DX2                !
 ! D18   D(23,4,5,7)           132.1683         estimate D2E/DX2                !
 ! D19   D(2,4,8,9)            121.4048         estimate D2E/DX2                !
 ! D20   D(5,4,8,9)           -118.5768         estimate D2E/DX2                !
 ! D21   D(23,4,8,9)             0.0            estimate D2E/DX2                !
 ! D22   D(2,4,23,12)         -123.7858         estimate D2E/DX2                !
 ! D23   D(5,4,23,12)          117.1076         estimate D2E/DX2                !
 ! D24   D(8,4,23,12)           -0.0001         estimate D2E/DX2                !
 ! D25   D(4,5,6,27)            87.5762         estimate D2E/DX2                !
 ! D26   D(4,5,6,28)           -28.1669         estimate D2E/DX2                !
 ! D27   D(4,5,6,29)          -150.4368         estimate D2E/DX2                !
 ! D28   D(7,5,6,27)           -92.424          estimate D2E/DX2                !
 ! D29   D(7,5,6,28)           151.8328         estimate D2E/DX2                !
 ! D30   D(7,5,6,29)            29.563          estimate D2E/DX2                !
 ! D31   D(4,8,9,10)          -179.9999         estimate D2E/DX2                !
 ! D32   D(4,8,9,11)             0.0            estimate D2E/DX2                !
 ! D33   D(8,9,10,30)         -114.7108         estimate D2E/DX2                !
 ! D34   D(8,9,10,31)          130.2832         estimate D2E/DX2                !
 ! D35   D(8,9,10,32)            9.6005         estimate D2E/DX2                !
 ! D36   D(11,9,10,30)          65.2892         estimate D2E/DX2                !
 ! D37   D(11,9,10,31)         -49.7167         estimate D2E/DX2                !
 ! D38   D(11,9,10,32)        -170.3994         estimate D2E/DX2                !
 ! D39   D(8,9,11,12)            0.0            estimate D2E/DX2                !
 ! D40   D(8,9,11,33)          179.9991         estimate D2E/DX2                !
 ! D41   D(10,9,11,12)         180.0            estimate D2E/DX2                !
 ! D42   D(10,9,11,33)          -0.0009         estimate D2E/DX2                !
 ! D43   D(9,11,12,13)        -180.0            estimate D2E/DX2                !
 ! D44   D(9,11,12,23)          -0.0001         estimate D2E/DX2                !
 ! D45   D(33,11,12,13)          0.001          estimate D2E/DX2                !
 ! D46   D(33,11,12,23)       -179.9992         estimate D2E/DX2                !
 ! D47   D(11,12,13,14)          0.0013         estimate D2E/DX2                !
 ! D48   D(11,12,13,22)       -179.9992         estimate D2E/DX2                !
 ! D49   D(23,12,13,14)       -179.9986         estimate D2E/DX2                !
 ! D50   D(23,12,13,22)          0.001          estimate D2E/DX2                !
 ! D51   D(11,12,23,4)           0.0002         estimate D2E/DX2                !
 ! D52   D(13,12,23,4)        -180.0            estimate D2E/DX2                !
 ! D53   D(12,13,14,15)        179.9995         estimate D2E/DX2                !
 ! D54   D(12,13,14,34)         -0.0011         estimate D2E/DX2                !
 ! D55   D(22,13,14,15)          0.0            estimate D2E/DX2                !
 ! D56   D(22,13,14,34)        179.9994         estimate D2E/DX2                !
 ! D57   D(12,13,22,21)       -179.9996         estimate D2E/DX2                !
 ! D58   D(12,13,22,40)          0.0005         estimate D2E/DX2                !
 ! D59   D(14,13,22,21)          0.0            estimate D2E/DX2                !
 ! D60   D(14,13,22,40)       -180.0            estimate D2E/DX2                !
 ! D61   D(13,14,15,16)          0.0001         estimate D2E/DX2                !
 ! D62   D(13,14,15,35)        179.9998         estimate D2E/DX2                !
 ! D63   D(34,14,15,16)       -179.9994         estimate D2E/DX2                !
 ! D64   D(34,14,15,35)          0.0003         estimate D2E/DX2                !
 ! D65   D(14,15,16,17)        179.9991         estimate D2E/DX2                !
 ! D66   D(14,15,16,21)          0.0            estimate D2E/DX2                !
 ! D67   D(35,15,16,17)         -0.0006         estimate D2E/DX2                !
 ! D68   D(35,15,16,21)       -179.9997         estimate D2E/DX2                !
 ! D69   D(15,16,17,18)       -179.999          estimate D2E/DX2                !
 ! D70   D(15,16,17,36)          0.0013         estimate D2E/DX2                !
 ! D71   D(21,16,17,18)          0.0002         estimate D2E/DX2                !
 ! D72   D(21,16,17,36)       -179.9996         estimate D2E/DX2                !
 ! D73   D(15,16,21,20)        179.9989         estimate D2E/DX2                !
 ! D74   D(15,16,21,22)          0.0            estimate D2E/DX2                !
 ! D75   D(17,16,21,20)         -0.0002         estimate D2E/DX2                !
 ! D76   D(17,16,21,22)       -179.9992         estimate D2E/DX2                !
 ! D77   D(16,17,18,19)         -0.0001         estimate D2E/DX2                !
 ! D78   D(16,17,18,37)       -180.0            estimate D2E/DX2                !
 ! D79   D(36,17,18,19)        179.9997         estimate D2E/DX2                !
 ! D80   D(36,17,18,37)         -0.0002         estimate D2E/DX2                !
 ! D81   D(17,18,19,20)          0.0            estimate D2E/DX2                !
 ! D82   D(17,18,19,38)       -180.0            estimate D2E/DX2                !
 ! D83   D(37,18,19,20)        179.9998         estimate D2E/DX2                !
 ! D84   D(37,18,19,38)         -0.0001         estimate D2E/DX2                !
 ! D85   D(18,19,20,21)          0.0            estimate D2E/DX2                !
 ! D86   D(18,19,20,39)        179.9997         estimate D2E/DX2                !
 ! D87   D(38,19,20,21)        180.0            estimate D2E/DX2                !
 ! D88   D(38,19,20,39)         -0.0003         estimate D2E/DX2                !
 ! D89   D(19,20,21,16)          0.0001         estimate D2E/DX2                !
 ! D90   D(19,20,21,22)        179.999          estimate D2E/DX2                !
 ! D91   D(39,20,21,16)       -179.9996         estimate D2E/DX2                !
 ! D92   D(39,20,21,22)         -0.0006         estimate D2E/DX2                !
 ! D93   D(16,21,22,13)          0.0001         estimate D2E/DX2                !
 ! D94   D(16,21,22,40)       -180.0            estimate D2E/DX2                !
 ! D95   D(20,21,22,13)       -179.9989         estimate D2E/DX2                !
 ! D96   D(20,21,22,40)          0.001          estimate D2E/DX2                !
 --------------------------------------------------------------------------------
 Trust Radius=3.00D-01 FncErr=1.00D-07 GrdErr=1.00D-06 EigMax=2.50D+02 EigMin=1.00D-04
 Number of steps in this run=    219 maximum allowed number of steps=    240.
 GradGradGradGradGradGradGradGradGradGradGradGradGradGradGradGradGradGrad

 Leave Link  103 at Tue Dec  5 19:26:56 2023, MaxMem=  2147483648 cpu:               3.1 elap:               0.2
 (Enter /opt/gaussian/g16-c01/g16/l202.exe)
                          Input orientation:                          
 ---------------------------------------------------------------------
 Center     Atomic      Atomic             Coordinates (Angstroms)
 Number     Number       Type             X           Y           Z
 ---------------------------------------------------------------------
      1          6           0       -2.915991    2.104579   -2.438389
      2          6           0       -2.773883    0.657002   -2.204844
      3          8           0       -2.809739   -0.115561   -3.127967
      4          5           0       -2.574836    0.111636   -0.751903
      5          6           0       -3.351418    1.018006    0.283414
      6          6           0       -3.020508    0.872021    1.715707
      7          8           0       -4.192569    1.810476   -0.071112
      8          8           0       -3.136187   -1.255018   -0.596284
      9          6           0       -2.307289   -2.285660   -0.199711
     10          6           0       -2.813838   -3.682417   -0.025689
     11          6           0       -1.025140   -2.080849    0.044096
     12          6           0       -0.398970   -0.771142   -0.085369
     13          6           0        1.006322   -0.543666    0.181238
     14          6           0        1.829896   -1.563653    0.574406
     15          6           0        3.178718   -1.357290    0.832748
     16          6           0        3.681763   -0.074757    0.681431
     17          6           0        5.009128    0.113638    0.938699
     18          6           0        5.552053    1.366625    0.802367
     19          6           0        4.747843    2.435934    0.403388
     20          6           0        3.410196    2.226259    0.148196
     21          6           0        2.878668    0.963752    0.289025
     22          6           0        1.524163    0.720338    0.037026
     23          8           0       -1.144202    0.185281   -0.448040
     24          1           0       -2.535416    2.724057   -1.605681
     25          1           0       -2.356596    2.446114   -3.356272
     26          1           0       -3.982859    2.387527   -2.575808
     27          1           0       -2.160292    1.569726    1.915707
     28          1           0       -2.664144   -0.162073    1.895867
     29          1           0       -3.879907    1.097949    2.378988
     30          1           0       -2.731464   -3.950549    1.051660
     31          1           0       -2.133870   -4.366885   -0.574392
     32          1           0       -3.844629   -3.795926   -0.411285
     33          1           0       -0.416143   -2.948016    0.358066
     34          1           0        1.489207   -2.581085    0.707472
     35          1           0        3.767053   -2.202926    1.137652
     36          1           0        5.650758   -0.723922    1.253815
     37          1           0        6.596026    1.579118    0.991495
     38          1           0        5.138257    3.437913    0.284612
     39          1           0        2.767466    3.057341   -0.165835
     40          1           0        0.942373    1.576101   -0.268495
 ---------------------------------------------------------------------
                    Distance matrix (angstroms):
                    1          2          3          4          5
     1  C    0.000000
     2  C    1.473166   0.000000
     3  O    2.327193   1.204282   0.000000
     4  B    2.632953   1.564635   2.398432   0.000000
     5  C    2.962845   2.579787   3.635369   1.580021   0.000000
     6  C    4.334355   3.934181   4.947820   2.620288   1.477253
     7  O    2.705577   2.809979   3.868617   2.442661   1.208814
     8  O    3.837803   2.524787   2.795416   1.485623   2.446800
     9  C    4.965521   3.591313   3.679194   2.474576   3.498260
    10  C    6.270636   4.856014   4.727220   3.870316   4.741151
    11  C    5.220714   3.951159   4.136319   2.800386   3.882235
    12  C    4.487969   3.488837   3.936876   2.440893   3.471887
    13  C    5.409269   4.628708   5.069165   3.758306   4.630244
    14  C    6.712399   5.818103   6.109889   4.895646   5.796176
    15  C    7.735008   6.979813   7.286341   6.145913   6.970400
    16  C    7.616636   7.109249   7.526804   6.421388   7.128687
    17  C    8.841724   8.411443   8.816177   7.770113   8.434809
    18  C    9.096969   8.880771   9.357562   8.368816   8.925393
    19  C    8.180455   8.157440   8.723396   7.769085   8.223317
    20  C    6.835632   6.800162   7.409788   6.411117   6.870050
    21  C    6.505255   6.185856   6.723000   5.616969   6.230325
    22  C    5.268659   4.848009   5.431263   4.218379   4.890869
    23  O    3.283966   2.442282   3.169626   1.464401   2.469870
    24  H    1.105438   2.165313   3.233580   2.748679   2.673041
    25  H    1.127864   2.168141   2.611444   3.504305   4.034412
    26  H    1.112273   2.143351   2.818961   3.238648   3.232562
    27  H    4.451438   4.264798   5.357296   3.068227   2.094650
    28  H    4.897644   4.183152   5.026159   2.663377   2.113040
    29  H    5.014934   4.735952   5.739723   3.532492   2.162665
    30  H    6.991357   5.642353   5.672966   4.447327   5.065677
    31  H    6.779826   5.320473   5.005127   4.503678   5.587066
    32  H    6.307732   4.918528   4.690037   4.122795   4.888743
    33  H    6.292703   5.012345   5.089649   3.905567   4.934647
    34  H    7.159445   6.094319   6.266605   5.088906   6.046894
    35  H    8.718127   7.882595   8.112139   7.010504   7.859819
    36  H    9.747922   9.211072   9.547258   8.507729   9.220367
    37  H   10.125151   9.942941  10.407224   9.449743   9.988387
    38  H    8.606011   8.748304   9.351124   8.463468   8.827827
    39  H    6.194670   6.373832   7.067301   6.128690   6.465404
    40  H    4.458105   4.290076   5.011651   3.840456   4.364942
                    6          7          8          9         10
     6  C    0.000000
     7  O    2.333912   0.000000
     8  O    3.143721   3.284662   0.000000
     9  C    3.761443   4.511003   1.380784   0.000000
    10  C    4.880377   5.663465   2.514310   1.495930   0.000000
    11  C    3.936397   5.018794   2.355547   1.321096   2.401943
    12  C    3.579989   4.588720   2.826221   2.438959   3.782945
    13  C    4.535871   5.712629   4.274452   3.762935   4.948555
    14  C    5.546305   6.933363   5.111531   4.270463   5.139411
    15  C    6.646792   8.073882   6.475385   5.658985   6.484895
    16  C    6.847376   8.131761   7.036335   6.444629   7.463783
    17  C    8.102712   9.411174   8.400925   7.783480   8.748650
    18  C    8.635255   9.793754   9.182306   8.724254   9.806459
    19  C    8.032141   8.974816   8.762443   8.510703   9.736393
    20  C    6.756109   7.617283   7.451756   7.291645   8.583780
    21  C    6.069935   7.130851   6.471877   6.139356   7.354628
    22  C    4.847165   5.820749   5.101174   4.875663   6.181136
    23  O    2.945155   3.475036   2.462609   2.742260   4.233811
    24  H    3.833663   2.436327   4.148837   5.208268   6.604302
    25  H    5.351964   3.816688   4.682272   5.688233   6.990046
    26  H    4.651879   2.578850   4.231253   5.503821   6.686848
    27  H    1.125506   2.852290   3.904055   4.400068   5.637477
    28  H    1.108514   3.177426   2.761914   3.004732   4.013428
    29  H    1.108852   2.570689   3.865465   4.535595   5.456269
    30  H    4.876647   6.048541   3.185186   2.125490   1.113266
    31  H    5.785915   6.530798   3.269378   2.121782   1.109922
    32  H    5.195479   5.627479   2.644301   2.165429   1.106390
    33  H    4.818567   6.090060   3.343002   2.079967   2.536839
    34  H    5.768709   7.223197   4.985228   3.914542   4.501850
    35  H    7.473984   8.995782   7.180514   6.220371   6.844734
    36  H    8.829000  10.250351   8.995295   8.239070   9.057550
    37  H    9.669653  10.843267  10.260085   9.778778  10.828848
    38  H    8.671637   9.478365   9.553324   9.403723  10.678539
    39  H    6.466565   7.071473   7.323581   7.368985   8.751853
    40  H    4.487451   5.144076   4.975674   5.047597   6.466845
                   11         12         13         14         15
    11  C    0.000000
    12  C    1.457458   0.000000
    13  C    2.551191   1.448334   0.000000
    14  C    2.949568   2.455854   1.368659   0.000000
    15  C    4.337964   3.739834   2.409513   1.388757   0.000000
    16  C    5.156116   4.210144   2.761893   2.378587   1.385944
    17  C    6.482937   5.574861   4.126530   3.612967   2.350586
    18  C    7.464551   6.385358   4.969777   4.742673   3.612943
    19  C    7.338784   6.083905   4.788146   4.953823   4.127354
    20  C    6.183383   4.852701   3.667722   4.128249   3.655683
    21  C    4.956743   3.727323   2.406160   2.751207   2.402686
    22  C    3.787564   2.436788   1.373558   2.366192   2.772592
    23  O    2.322007   1.265562   2.356291   3.598531   4.765247
    24  H    5.299983   4.369458   5.139553   6.495628   7.433348
    25  H    5.816242   4.988170   5.723808   7.003940   7.915395
    26  H    5.964762   5.387368   6.409768   7.702194   8.770980
    27  H    4.256547   3.547707   4.183569   5.247738   6.184274
    28  H    3.130031   3.070387   4.069138   4.889487   6.057871
    29  H    4.868898   4.656552   5.603592   6.553052   7.631726
    30  H    2.724427   4.103900   5.131816   5.170208   6.457799
    31  H    2.614913   4.022237   5.004876   4.988916   6.265884
    32  H    3.331423   4.596532   5.870264   6.176962   7.538035
    33  H    1.105185   2.221646   2.799209   2.647254   3.959641
    34  H    2.648064   2.733076   2.158976   1.081177   2.089932
    35  H    4.916898   4.571819   3.359986   2.116245   1.074339
    36  H    6.918980   6.196358   4.770084   3.970608   2.586394
    37  H    8.507355   7.457434   6.033864   5.724244   4.508402
    38  H    8.276596   6.965193   5.739037   6.003740   5.209052
    39  H    6.389752   4.968911   4.023598   4.772901   4.544806
    40  H    4.164385   2.709665   2.167893   3.369901   3.849514
                   16         17         18         19         20
    16  C    0.000000
    17  C    1.365129   0.000000
    18  C    2.364359   1.372345   0.000000
    19  C    2.741788   2.397475   1.396195   0.000000
    20  C    2.377554   2.764895   2.398846   1.377819   0.000000
    21  C    1.370199   2.384036   2.751875   2.382061   1.377054
    22  C    2.388027   3.650490   4.150582   3.670096   2.416046
    23  O    4.963191   6.308062   6.913676   6.364477   5.026294
    24  H    7.191492   8.379039   8.546840   7.560769   6.218858
    25  H    7.688928   8.839746   9.000350   8.037923   6.751705
    26  H    8.684404   9.918577  10.167047   9.225135   7.880575
    27  H    6.193333   7.380740   7.794937   7.124588   5.880941
    28  H    6.461657   7.737654   8.428437   7.994666   6.756929
    29  H    7.838099   9.058601   9.566598   8.951607   7.706823
    30  H    7.502554   8.743406   9.846377   9.856341   8.757237
    31  H    7.336283   8.566618   9.687209   9.725861   8.644556
    32  H    8.466859   9.772214  10.789927  10.645673   9.445222
    33  H    5.015278   6.256551   7.377865   7.460276   6.438792
    34  H    3.330114   4.439014   5.665698   5.990130   5.207067
    35  H    2.178191   2.636058   4.005039   4.797928   4.552368
    36  H    2.150809   1.101133   2.141013   3.394580   3.866016
    37  H    3.365170   2.160709   1.082036   2.120326   3.358490
    38  H    3.823309   3.390473   2.174749   1.081893   2.114925
    39  H    3.371029   3.861403   3.398509   2.152221   1.096547
    40  H    3.336458   4.487161   4.737064   3.958831   2.585824
                   21         22         23         24         25
    21  C    0.000000
    22  C    1.399085   0.000000
    23  O    4.163264   2.764371   0.000000
    24  H    6.000074   4.815969   3.117851   0.000000
    25  H    6.549319   5.436273   3.878025   1.781516   0.000000
    26  H    7.570664   6.319313   4.175555   1.774680   1.804796
    27  H    5.329579   4.222098   2.921716   3.724698   5.347930
    28  H    5.879812   4.666461   2.815098   4.539511   5.872154
    29  H    7.075612   5.901809   4.038457   4.508821   6.085329
    30  H    7.497036   6.399768   4.676921   7.186812   7.777383
    31  H    7.367952   6.295623   4.660217   7.176786   7.362433
    32  H    8.267266   7.030046   4.810786   6.756537   7.060471
    33  H    5.114927   4.162292   3.316237   6.365535   6.830688
    34  H    3.830348   3.368993   3.990342   7.049312   7.521765
    35  H    3.396652   3.845440   5.686684   8.457077   8.905504
    36  H    3.385786   4.538199   7.063600   9.331598   9.768303
    37  H    3.832870   5.231855   7.995384   9.562397   9.990205
    38  H    3.350707   4.528597   7.112361   7.935241   8.391217
    39  H    2.145315   2.654908   4.861020   5.504979   6.067001
    40  H    2.105953   1.078959   2.514043   3.898831   4.601574
                   26         27         28         29         30
    26  H    0.000000
    27  H    4.915715   0.000000
    28  H    5.313694   1.803715   0.000000
    29  H    5.120900   1.842357   1.816354   0.000000
    30  H    7.409165   5.616605   3.881980   5.344909   0.000000
    31  H    7.283303   6.437751   4.905488   6.452558   1.781712
    32  H    6.552813   6.086222   4.463338   5.633550   1.844791
    33  H    7.056706   5.087071   3.896129   5.696632   2.616650
    34  H    8.087678   5.657553   4.951184   6.719869   4.450614
    35  H    9.742853   7.069066   6.789718   8.420967   6.729956
    36  H   10.823756   8.167706   8.358559   9.768255   8.984077
    37  H   11.193390   8.804962   9.465748  10.578366  10.843565
    38  H    9.616656   7.708399   8.742626   9.549300  10.821749
    39  H    7.198855   5.552352   6.642110   7.382609   8.990609
    40  H    5.499092   3.794379   4.551118   5.521972   6.766369
                   31         32         33         34         35
    31  H    0.000000
    32  H    1.810882   0.000000
    33  H    2.415213   3.614605   0.000000
    34  H    4.237799   5.583660   1.971568   0.000000
    35  H    6.514193   7.929348   4.319959   2.348753   0.000000
    36  H    8.787147  10.117912   6.523515   4.589777   2.397768
    37  H   10.677923  11.826503   8.370585   6.592993   4.725284
    38  H   10.702177  11.554434   8.463855   7.051433   5.867448
    39  H    8.905568   9.526138   6.817195   5.847090   5.510777
    40  H    6.698950   7.196836   4.765058   4.305082   4.923120
                   36         37         38         39         40
    36  H    0.000000
    37  H    2.503265   0.000000
    38  H    4.303822   2.465744   0.000000
    39  H    4.962532   4.264086   2.443028   0.000000
    40  H    5.456778   5.792355   4.623604   2.352780   0.000000
 Stoichiometry    C18H17BO4
 Framework group  C1[X(C18H17BO4)]
 Deg. of freedom   114
 Full point group                 C1      NOp   1
 Largest Abelian subgroup         C1      NOp   1
 Largest concise Abelian subgroup C1      NOp   1
                         Standard orientation:                         
 ---------------------------------------------------------------------
 Center     Atomic      Atomic             Coordinates (Angstroms)
 Number     Number       Type             X           Y           Z
 ---------------------------------------------------------------------
      1          6           0        2.901474   -2.771568   -1.152297
      2          6           0        2.899098   -1.303595   -1.275848
      3          8           0        3.200509   -0.779261   -2.317251
      4          5           0        2.503897   -0.412988   -0.051627
      5          6           0        2.957207   -1.103117    1.295481
      6          6           0        2.387786   -0.593766    2.559837
      7          8           0        3.744630   -2.020222    1.306303
      8          8           0        3.191713    0.903398   -0.085003
      9          6           0        2.437969    2.060128   -0.105268
     10          6           0        3.072685    3.414305   -0.139118
     11          6           0        1.117526    2.019749   -0.095572
     12          6           0        0.368736    0.769768   -0.063240
     13          6           0       -1.078785    0.722465   -0.052545
     14          6           0       -1.828029    1.867655   -0.072615
     15          6           0       -3.216353    1.834426   -0.062634
     16          6           0       -3.837698    0.595962   -0.031386
     17          6           0       -5.202679    0.578201   -0.021882
     18          6           0       -5.862014   -0.624987    0.008870
     19          6           0       -5.136685   -1.817801    0.030145
     20          6           0       -3.759428   -1.779746    0.020111
     21          6           0       -3.110856   -0.565383   -0.010813
     22          6           0       -1.713574   -0.495218   -0.021663
     23          8           0        1.043839   -0.300524   -0.044342
     24          1           0        2.299684   -3.142568   -0.302472
     25          1           0        2.483561   -3.278089   -2.069283
     26          1           0        3.931927   -3.161143   -0.998840
     27          1           0        1.425719   -1.154460    2.723579
     28          1           0        2.135172    0.477877    2.431110
     29          1           0        3.074953   -0.720651    3.420799
     30          1           0        2.826345    3.937740    0.812037
     31          1           0        2.596071    3.998463   -0.953689
     32          1           0        4.162989    3.351945   -0.316449
     33          1           0        0.573187    2.981428   -0.112953
     34          1           0       -1.394436    2.857776   -0.097165
     35          1           0       -3.741538    2.771494   -0.079639
     36          1           0       -5.782712    1.514032   -0.038505
     37          1           0       -6.941098   -0.704370    0.017814
     38          1           0       -5.619483   -2.785687    0.054564
     39          1           0       -3.177721   -2.709132    0.036582
     40          1           0       -1.195909   -1.441726   -0.004397
 ---------------------------------------------------------------------
 Rotational constants (GHZ):           0.4780944           0.1468273           0.1283346
 Leave Link  202 at Tue Dec  5 19:26:56 2023, MaxMem=  2147483648 cpu:               2.7 elap:               0.2
 (Enter /opt/gaussian/g16-c01/g16/l301.exe)
 Standard basis: 6-311++G(d,p) (5D, 7F)
 Ernie: Thresh=  0.10000D-02 Tol=  0.10000D-05 Strict=F.
 There are   648 symmetry adapted cartesian basis functions of A   symmetry.
 There are   625 symmetry adapted basis functions of A   symmetry.
   625 basis functions,   981 primitive gaussians,   648 cartesian basis functions
    81 alpha electrons       81 beta electrons
       nuclear repulsion energy      1831.3740251910 Hartrees.
 IExCor= 7252 DFT=T Ex+Corr=MN15 ExCW=0 ScaHFX=  0.440000
 ScaDFX=  1.000000  1.000000  1.000000  1.000000 ScalE2=  1.000000  1.000000
 IRadAn=      5 IRanWt=     -1 IRanGd=            0 ICorTp=0 IEmpDi=  4
 NAtoms=   40 NActive=   40 NUniq=   40 SFac= 1.00D+00 NAtFMM=   60 NAOKFM=F Big=F
 Integral buffers will be    131072 words long.
 Raffenetti 2 integral format.
 Two-electron integral symmetry is turned on.
 Leave Link  301 at Tue Dec  5 19:26:56 2023, MaxMem=  2147483648 cpu:               4.1 elap:               0.2
 (Enter /opt/gaussian/g16-c01/g16/l302.exe)
 NPDir=0 NMtPBC=     1 NCelOv=     1 NCel=       1 NClECP=     1 NCelD=      1
         NCelK=      1 NCelE2=     1 NClLst=     1 CellRange=     0.0.
 One-electron integrals computed using PRISM.
 One-electron integral symmetry used in STVInt
 NBasis=   625 RedAO= T EigKep=  1.33D-06  NBF=   625
 NBsUse=   617 1.00D-06 EigRej=  9.90D-07 NBFU=   617
 Precomputing XC quadrature grid using
 IXCGrd= 4 IRadAn=           5 IRanWt=          -1 IRanGd=           0 AccXCQ= 0.00D+00.
 Generated NRdTot=       0 NPtTot=           0 NUsed=           0 NTot=          32
 NSgBfM=   643   643   643   643   643 MxSgAt=    40 MxSgA2=    40.
 Leave Link  302 at Tue Dec  5 19:28:03 2023, MaxMem=  2147483648 cpu:            1665.9 elap:              66.9
 (Enter /opt/gaussian/g16-c01/g16/l303.exe)
 DipDrv:  MaxL=1.
 Leave Link  303 at Tue Dec  5 19:28:06 2023, MaxMem=  2147483648 cpu:              67.5 elap:               2.9
 (Enter /opt/gaussian/g16-c01/g16/l401.exe)
 ExpMin= 3.15D-02 ExpMax= 8.59D+03 ExpMxC= 1.30D+03 IAcc=3 IRadAn=         5 AccDes= 0.00D+00
 Harris functional with IExCor= 1009 and IRadAn=       5 diagonalized for initial guess.
 HarFok:  IExCor= 1009 AccDes= 0.00D+00 IRadAn=         5 IDoV= 1 UseB2=F ITyADJ=14
 ICtDFT=  3500011 ScaDFX=  1.000000  1.000000  1.000000  1.000000
 FoFCou: FMM=F IPFlag=           0 FMFlag=      100000 FMFlg1=           0
         NFxFlg=           0 DoJE=T BraDBF=F KetDBF=T FulRan=T
         wScrn=  0.000000 ICntrl=       500 IOpCl=  0 I1Cent=   200000004 NGrid=           0
         NMat0=    1 NMatS0=      1 NMatT0=    0 NMatD0=    1 NMtDS0=    0 NMtDT0=    0
 Petite list used in FoFCou.
 Harris En= -1021.33086392726    
 JPrj=0 DoOrth=F DoCkMO=F.
 Leave Link  401 at Tue Dec  5 19:28:19 2023, MaxMem=  2147483648 cpu:             309.1 elap:              12.4
 (Enter /opt/gaussian/g16-c01/g16/l502.exe)
 Integral symmetry usage will be decided dynamically.
 Closed shell SCF:
 Using DIIS extrapolation, IDIIS=  1040.
 NGot=  2147483648 LenX=  2146619930 LenY=  2146199378
 Requested convergence on RMS density matrix=1.00D-08 within 128 cycles.
 Requested convergence on MAX density matrix=1.00D-06.
 Requested convergence on             energy=1.00D-06.
 No special actions if energy rises.
 Fock matrices will be formed incrementally for  20 cycles.

 Cycle   1  Pass 1  IDiag  1:
 FoFJK:  IHMeth= 1 ICntrl=       0 DoSepK=F KAlg= 0 I1Cent=           0 FoldK=F
 IRaf= 810000000 NMat=       1 IRICut=       1 DoRegI=T DoRafI=F ISym2E= 0 IDoP0=0 IntGTp=1.
 FoFCou: FMM=F IPFlag=           0 FMFlag=      100000 FMFlg1=           0
         NFxFlg=           0 DoJE=F BraDBF=F KetDBF=F FulRan=T
         wScrn=  0.000000 ICntrl=         0 IOpCl=  0 I1Cent=           0 NGrid=           0
         NMat0=    1 NMatS0=      1 NMatT0=    0 NMatD0=    1 NMtDS0=    0 NMtDT0=    0
 Symmetry not used in FoFCou.
 E= -1020.45297751633    
 DIIS: error= 2.34D-02 at cycle   1 NSaved=   1.
 NSaved= 1 IEnMin= 1 EnMin= -1020.45297751633     IErMin= 1 ErrMin= 2.34D-02
 ErrMax= 2.34D-02  0.00D+00 EMaxC= 1.00D-01 BMatC= 6.52D-01 BMatP= 6.52D-01
 IDIUse=3 WtCom= 7.66D-01 WtEn= 2.34D-01
 Coeff-Com:  0.100D+01
 Coeff-En:   0.100D+01
 Coeff:      0.100D+01
 Gap=     0.080 Goal=   None    Shift=    0.000
 GapD=    0.080 DampG=0.500 DampE=0.500 DampFc=0.2500 IDamp=-1.
 Damping current iteration by 2.50D-01
 RMSDP=1.09D-02 MaxDP=9.83D-01              OVMax= 3.08D-01

 Cycle   2  Pass 1  IDiag  1:
 RMSU=  2.71D-03    CP:  9.89D-01
 E= -1020.63643920920     Delta-E=       -0.183461692872 Rises=F Damp=T
 DIIS: error= 1.40D-02 at cycle   2 NSaved=   2.
 NSaved= 2 IEnMin= 2 EnMin= -1020.63643920920     IErMin= 2 ErrMin= 1.40D-02
 ErrMax= 1.40D-02  0.00D+00 EMaxC= 1.00D-01 BMatC= 2.16D-01 BMatP= 6.52D-01
 IDIUse=3 WtCom= 8.60D-01 WtEn= 1.40D-01
 Coeff-Com: -0.997D+00 0.200D+01
 Coeff-En:   0.000D+00 0.100D+01
 Coeff:     -0.857D+00 0.186D+01
 Gap=     0.152 Goal=   None    Shift=    0.000
 RMSDP=8.68D-03 MaxDP=1.25D+00 DE=-1.83D-01 OVMax= 1.96D-01

 Cycle   3  Pass 1  IDiag  1:
 RMSU=  3.90D-03    CP:  7.56D-01  1.92D+00
 E= -1020.94297912603     Delta-E=       -0.306539916827 Rises=F Damp=F
 DIIS: error= 7.03D-03 at cycle   3 NSaved=   3.
 NSaved= 3 IEnMin= 3 EnMin= -1020.94297912603     IErMin= 3 ErrMin= 7.03D-03
 ErrMax= 7.03D-03  0.00D+00 EMaxC= 1.00D-01 BMatC= 4.94D-02 BMatP= 2.16D-01
 IDIUse=3 WtCom= 9.30D-01 WtEn= 7.03D-02
 Coeff-Com: -0.527D+00 0.957D+00 0.570D+00
 Coeff-En:   0.000D+00 0.000D+00 0.100D+01
 Coeff:     -0.490D+00 0.890D+00 0.600D+00
 Gap=     0.127 Goal=   None    Shift=    0.000
 RMSDP=2.19D-03 MaxDP=1.63D-01 DE=-3.07D-01 OVMax= 5.97D-02

 Cycle   4  Pass 1  IDiag  1:
 RMSU=  1.93D-03    CP:  7.37D-01  2.21D+00  9.21D-01
 E= -1020.97563111249     Delta-E=       -0.032651986458 Rises=F Damp=F
 DIIS: error= 3.18D-03 at cycle   4 NSaved=   4.
 NSaved= 4 IEnMin= 4 EnMin= -1020.97563111249     IErMin= 4 ErrMin= 3.18D-03
 ErrMax= 3.18D-03  0.00D+00 EMaxC= 1.00D-01 BMatC= 1.24D-02 BMatP= 4.94D-02
 IDIUse=3 WtCom= 9.68D-01 WtEn= 3.18D-02
 Coeff-Com: -0.116D+00 0.195D+00 0.345D+00 0.576D+00
 Coeff-En:   0.000D+00 0.000D+00 0.211D+00 0.789D+00
 Coeff:     -0.113D+00 0.188D+00 0.341D+00 0.583D+00
 Gap=     0.125 Goal=   None    Shift=    0.000
 RMSDP=9.11D-04 MaxDP=1.12D-01 DE=-3.27D-02 OVMax= 2.21D-02

 Cycle   5  Pass 1  IDiag  1:
 RMSU=  4.64D-04    CP:  7.24D-01  2.09D+00  9.47D-01  7.04D-01
 E= -1020.98563527300     Delta-E=       -0.010004160516 Rises=F Damp=F
 DIIS: error= 5.69D-04 at cycle   5 NSaved=   5.
 NSaved= 5 IEnMin= 5 EnMin= -1020.98563527300     IErMin= 5 ErrMin= 5.69D-04
 ErrMax= 5.69D-04  0.00D+00 EMaxC= 1.00D-01 BMatC= 5.34D-04 BMatP= 1.24D-02
 IDIUse=3 WtCom= 9.94D-01 WtEn= 5.69D-03
 Coeff-Com: -0.356D-01 0.558D-01 0.135D+00 0.284D+00 0.560D+00
 Coeff-En:   0.000D+00 0.000D+00 0.000D+00 0.000D+00 0.100D+01
 Coeff:     -0.354D-01 0.555D-01 0.135D+00 0.282D+00 0.563D+00
 Gap=     0.128 Goal=   None    Shift=    0.000
 RMSDP=2.11D-04 MaxDP=1.20D-02 DE=-1.00D-02 OVMax= 9.72D-03

 Cycle   6  Pass 1  IDiag  1:
 RMSU=  1.48D-04    CP:  7.26D-01  2.10D+00  9.57D-01  7.15D-01  7.23D-01
 E= -1020.98608185032     Delta-E=       -0.000446577317 Rises=F Damp=F
 DIIS: error= 2.48D-04 at cycle   6 NSaved=   6.
 NSaved= 6 IEnMin= 6 EnMin= -1020.98608185032     IErMin= 6 ErrMin= 2.48D-04
 ErrMax= 2.48D-04  0.00D+00 EMaxC= 1.00D-01 BMatC= 6.03D-05 BMatP= 5.34D-04
 IDIUse=3 WtCom= 9.98D-01 WtEn= 2.48D-03
 Coeff-Com: -0.809D-02 0.111D-01 0.325D-01 0.830D-01 0.297D+00 0.585D+00
 Coeff-En:   0.000D+00 0.000D+00 0.000D+00 0.000D+00 0.000D+00 0.100D+01
 Coeff:     -0.807D-02 0.111D-01 0.325D-01 0.828D-01 0.296D+00 0.586D+00
 Gap=     0.128 Goal=   None    Shift=    0.000
 RMSDP=6.52D-05 MaxDP=4.29D-03 DE=-4.47D-04 OVMax= 3.47D-03

 Cycle   7  Pass 1  IDiag  1:
 RMSU=  5.20D-05    CP:  7.27D-01  2.09D+00  9.59D-01  7.11D-01  7.69D-01
                    CP:  8.60D-01
 E= -1020.98613549593     Delta-E=       -0.000053645605 Rises=F Damp=F
 DIIS: error= 7.53D-05 at cycle   7 NSaved=   7.
 NSaved= 7 IEnMin= 7 EnMin= -1020.98613549593     IErMin= 7 ErrMin= 7.53D-05
 ErrMax= 7.53D-05  0.00D+00 EMaxC= 1.00D-01 BMatC= 8.99D-06 BMatP= 6.03D-05
 IDIUse=1 WtCom= 1.00D+00 WtEn= 0.00D+00
 Coeff-Com:  0.153D-02-0.348D-02-0.613D-02-0.332D-02 0.847D-01 0.312D+00
 Coeff-Com:  0.615D+00
 Coeff:      0.153D-02-0.348D-02-0.613D-02-0.332D-02 0.847D-01 0.312D+00
 Coeff:      0.615D+00
 Gap=     0.128 Goal=   None    Shift=    0.000
 RMSDP=3.28D-05 MaxDP=3.72D-03 DE=-5.36D-05 OVMax= 3.08D-03

 Cycle   8  Pass 1  IDiag  1:
 RMSU=  2.47D-05    CP:  7.27D-01  2.10D+00  9.59D-01  7.12D-01  7.83D-01
                    CP:  8.90D-01  1.15D+00
 E= -1020.98614850536     Delta-E=       -0.000013009439 Rises=F Damp=F
 DIIS: error= 4.50D-05 at cycle   8 NSaved=   8.
 NSaved= 8 IEnMin= 8 EnMin= -1020.98614850536     IErMin= 8 ErrMin= 4.50D-05
 ErrMax= 4.50D-05  0.00D+00 EMaxC= 1.00D-01 BMatC= 1.00D-06 BMatP= 8.99D-06
 IDIUse=1 WtCom= 1.00D+00 WtEn= 0.00D+00
 Coeff-Com:  0.157D-02-0.262D-02-0.804D-02-0.168D-01-0.145D-01-0.110D-01
 Coeff-Com:  0.227D+00 0.825D+00
 Coeff:      0.157D-02-0.262D-02-0.804D-02-0.168D-01-0.145D-01-0.110D-01
 Coeff:      0.227D+00 0.825D+00
 Gap=     0.128 Goal=   None    Shift=    0.000
 RMSDP=1.64D-05 MaxDP=2.48D-03 DE=-1.30D-05 OVMax= 2.55D-03

 Cycle   9  Pass 1  IDiag  1:
 RMSU=  8.62D-06    CP:  7.27D-01  2.10D+00  9.60D-01  7.13D-01  7.95D-01
                    CP:  9.31D-01  1.32D+00  1.05D+00
 E= -1020.98615177162     Delta-E=       -0.000003266255 Rises=F Damp=F
 DIIS: error= 1.81D-05 at cycle   9 NSaved=   9.
 NSaved= 9 IEnMin= 9 EnMin= -1020.98615177162     IErMin= 9 ErrMin= 1.81D-05
 ErrMax= 1.81D-05  0.00D+00 EMaxC= 1.00D-01 BMatC= 2.43D-07 BMatP= 1.00D-06
 IDIUse=1 WtCom= 1.00D+00 WtEn= 0.00D+00
 Coeff-Com:  0.496D-03-0.720D-03-0.297D-02-0.759D-02-0.135D-01-0.487D-01
 Coeff-Com:  0.324D-01 0.400D+00 0.641D+00
 Coeff:      0.496D-03-0.720D-03-0.297D-02-0.759D-02-0.135D-01-0.487D-01
 Coeff:      0.324D-01 0.400D+00 0.641D+00
 Gap=     0.128 Goal=   None    Shift=    0.000
 RMSDP=6.64D-06 MaxDP=4.26D-04 DE=-3.27D-06 OVMax= 9.57D-04

 Cycle  10  Pass 1  IDiag  1:
 RMSU=  4.12D-06    CP:  7.27D-01  2.10D+00  9.60D-01  7.12D-01  8.00D-01
                    CP:  9.42D-01  1.37D+00  1.11D+00  1.19D+00
 E= -1020.98615239974     Delta-E=       -0.000000628118 Rises=F Damp=F
 DIIS: error= 8.29D-06 at cycle  10 NSaved=  10.
 NSaved=10 IEnMin=10 EnMin= -1020.98615239974     IErMin=10 ErrMin= 8.29D-06
 ErrMax= 8.29D-06  0.00D+00 EMaxC= 1.00D-01 BMatC= 4.43D-08 BMatP= 2.43D-07
 IDIUse=1 WtCom= 1.00D+00 WtEn= 0.00D+00
 Coeff-Com: -0.184D-03 0.369D-03 0.663D-03 0.490D-03-0.191D-02-0.275D-01
 Coeff-Com: -0.477D-01-0.209D-01 0.276D+00 0.821D+00
 Coeff:     -0.184D-03 0.369D-03 0.663D-03 0.490D-03-0.191D-02-0.275D-01
 Coeff:     -0.477D-01-0.209D-01 0.276D+00 0.821D+00
 Gap=     0.128 Goal=   None    Shift=    0.000
 RMSDP=4.05D-06 MaxDP=2.43D-04 DE=-6.28D-07 OVMax= 7.80D-04

 Cycle  11  Pass 1  IDiag  1:
 RMSU=  1.65D-06    CP:  7.27D-01  2.10D+00  9.60D-01  7.12D-01  8.02D-01
                    CP:  9.42D-01  1.41D+00  1.17D+00  1.42D+00  1.08D+00
 E= -1020.98615260437     Delta-E=       -0.000000204629 Rises=F Damp=F
 DIIS: error= 4.33D-06 at cycle  11 NSaved=  11.
 NSaved=11 IEnMin=11 EnMin= -1020.98615260437     IErMin=11 ErrMin= 4.33D-06
 ErrMax= 4.33D-06  0.00D+00 EMaxC= 1.00D-01 BMatC= 1.89D-08 BMatP= 4.43D-08
 IDIUse=1 WtCom= 1.00D+00 WtEn= 0.00D+00
 Coeff-Com: -0.237D-03 0.405D-03 0.992D-03 0.179D-02 0.213D-02-0.746D-02
 Coeff-Com: -0.317D-01-0.840D-01-0.229D-03 0.503D+00 0.615D+00
 Coeff:     -0.237D-03 0.405D-03 0.992D-03 0.179D-02 0.213D-02-0.746D-02
 Coeff:     -0.317D-01-0.840D-01-0.229D-03 0.503D+00 0.615D+00
 Gap=     0.128 Goal=   None    Shift=    0.000
 RMSDP=2.01D-06 MaxDP=1.34D-04 DE=-2.05D-07 OVMax= 2.57D-04

 Cycle  12  Pass 1  IDiag  1:
 RMSU=  9.43D-07    CP:  7.27D-01  2.10D+00  9.60D-01  7.12D-01  8.02D-01
                    CP:  9.41D-01  1.42D+00  1.19D+00  1.52D+00  1.28D+00
                    CP:  1.07D+00
 E= -1020.98615263960     Delta-E=       -0.000000035231 Rises=F Damp=F
 DIIS: error= 1.08D-06 at cycle  12 NSaved=  12.
 NSaved=12 IEnMin=12 EnMin= -1020.98615263960     IErMin=12 ErrMin= 1.08D-06
 ErrMax= 1.08D-06  0.00D+00 EMaxC= 1.00D-01 BMatC= 1.22D-09 BMatP= 1.89D-08
 IDIUse=1 WtCom= 1.00D+00 WtEn= 0.00D+00
 Coeff-Com: -0.182D-04 0.159D-04 0.697D-04 0.270D-03 0.116D-02 0.314D-02
 Coeff-Com:  0.423D-02-0.134D-01-0.783D-01-0.123D-02 0.116D+00 0.968D+00
 Coeff:     -0.182D-04 0.159D-04 0.697D-04 0.270D-03 0.116D-02 0.314D-02
 Coeff:      0.423D-02-0.134D-01-0.783D-01-0.123D-02 0.116D+00 0.968D+00
 Gap=     0.128 Goal=   None    Shift=    0.000
 RMSDP=7.96D-07 MaxDP=4.71D-05 DE=-3.52D-08 OVMax= 1.08D-04

 Cycle  13  Pass 1  IDiag  1:
 RMSU=  3.37D-07    CP:  7.27D-01  2.10D+00  9.60D-01  7.11D-01  8.03D-01
                    CP:  9.41D-01  1.42D+00  1.20D+00  1.55D+00  1.38D+00
                    CP:  1.22D+00  1.30D+00
 E= -1020.98615264457     Delta-E=       -0.000000004971 Rises=F Damp=F
 DIIS: error= 7.35D-07 at cycle  13 NSaved=  13.
 NSaved=13 IEnMin=13 EnMin= -1020.98615264457     IErMin=13 ErrMin= 7.35D-07
 ErrMax= 7.35D-07  0.00D+00 EMaxC= 1.00D-01 BMatC= 3.60D-10 BMatP= 1.22D-09
 IDIUse=1 WtCom= 1.00D+00 WtEn= 0.00D+00
 Coeff-Com:  0.233D-04-0.469D-04-0.876D-04-0.870D-04 0.333D-03 0.239D-02
 Coeff-Com:  0.637D-02 0.318D-02-0.419D-01-0.586D-01-0.310D-01 0.471D+00
 Coeff-Com:  0.648D+00
 Coeff:      0.233D-04-0.469D-04-0.876D-04-0.870D-04 0.333D-03 0.239D-02
 Coeff:      0.637D-02 0.318D-02-0.419D-01-0.586D-01-0.310D-01 0.471D+00
 Coeff:      0.648D+00
 Gap=     0.128 Goal=   None    Shift=    0.000
 RMSDP=2.64D-07 MaxDP=1.63D-05 DE=-4.97D-09 OVMax= 2.44D-05

 Cycle  14  Pass 1  IDiag  1:
 RMSU=  1.25D-07    CP:  7.27D-01  2.10D+00  9.60D-01  7.11D-01  8.03D-01
                    CP:  9.41D-01  1.43D+00  1.20D+00  1.56D+00  1.40D+00
                    CP:  1.27D+00  1.44D+00  9.96D-01
 E= -1020.98615264499     Delta-E=       -0.000000000422 Rises=F Damp=F
 DIIS: error= 2.71D-07 at cycle  14 NSaved=  14.
 NSaved=14 IEnMin=14 EnMin= -1020.98615264499     IErMin=14 ErrMin= 2.71D-07
 ErrMax= 2.71D-07  0.00D+00 EMaxC= 1.00D-01 BMatC= 6.14D-11 BMatP= 3.60D-10
 IDIUse=1 WtCom= 1.00D+00 WtEn= 0.00D+00
 Coeff-Com:  0.168D-04-0.285D-04-0.568D-04-0.102D-03-0.770D-04 0.498D-03
 Coeff-Com:  0.238D-02 0.468D-02-0.416D-02-0.266D-01-0.423D-01 0.286D-01
 Coeff-Com:  0.324D+00 0.713D+00
 Coeff:      0.168D-04-0.285D-04-0.568D-04-0.102D-03-0.770D-04 0.498D-03
 Coeff:      0.238D-02 0.468D-02-0.416D-02-0.266D-01-0.423D-01 0.286D-01
 Coeff:      0.324D+00 0.713D+00
 Gap=     0.128 Goal=   None    Shift=    0.000
 RMSDP=8.28D-08 MaxDP=4.24D-06 DE=-4.22D-10 OVMax= 7.47D-06

 Cycle  15  Pass 1  IDiag  1:
 RMSU=  5.25D-08    CP:  7.27D-01  2.10D+00  9.60D-01  7.11D-01  8.03D-01
                    CP:  9.41D-01  1.43D+00  1.20D+00  1.56D+00  1.41D+00
                    CP:  1.28D+00  1.46D+00  1.09D+00  1.07D+00
 E= -1020.98615264518     Delta-E=       -0.000000000191 Rises=F Damp=F
 DIIS: error= 9.73D-08 at cycle  15 NSaved=  15.
 NSaved=15 IEnMin=15 EnMin= -1020.98615264518     IErMin=15 ErrMin= 9.73D-08
 ErrMax= 9.73D-08  0.00D+00 EMaxC= 1.00D-01 BMatC= 1.14D-11 BMatP= 6.14D-11
 IDIUse=1 WtCom= 1.00D+00 WtEn= 0.00D+00
 Coeff-Com:  0.353D-05-0.459D-05-0.103D-04-0.321D-04-0.869D-04-0.146D-03
 Coeff-Com:  0.467D-04 0.179D-02 0.552D-02-0.189D-02-0.135D-01-0.694D-01
 Coeff-Com:  0.428D-01 0.345D+00 0.690D+00
 Coeff:      0.353D-05-0.459D-05-0.103D-04-0.321D-04-0.869D-04-0.146D-03
 Coeff:      0.467D-04 0.179D-02 0.552D-02-0.189D-02-0.135D-01-0.694D-01
 Coeff:      0.428D-01 0.345D+00 0.690D+00
 Gap=     0.128 Goal=   None    Shift=    0.000
 RMSDP=3.49D-08 MaxDP=1.54D-06 DE=-1.91D-10 OVMax= 3.16D-06

 Cycle  16  Pass 1  IDiag  1:
 RMSU=  2.29D-08    CP:  7.27D-01  2.10D+00  9.60D-01  7.11D-01  8.03D-01
                    CP:  9.41D-01  1.43D+00  1.20D+00  1.56D+00  1.41D+00
                    CP:  1.28D+00  1.47D+00  1.14D+00  1.14D+00  1.13D+00
 E= -1020.98615264514     Delta-E=        0.000000000045 Rises=F Damp=F
 DIIS: error= 5.87D-08 at cycle  16 NSaved=  16.
 NSaved=16 IEnMin=15 EnMin= -1020.98615264518     IErMin=16 ErrMin= 5.87D-08
 ErrMax= 5.87D-08  0.00D+00 EMaxC= 1.00D-01 BMatC= 2.50D-12 BMatP= 1.14D-11
 IDIUse=1 WtCom= 1.00D+00 WtEn= 0.00D+00
 Coeff-Com: -0.130D-05 0.286D-05 0.570D-05 0.381D-05-0.295D-04-0.147D-03
 Coeff-Com: -0.466D-03-0.138D-03 0.335D-02 0.360D-02 0.267D-02-0.393D-01
 Coeff-Com: -0.418D-01 0.235D-01 0.351D+00 0.698D+00
 Coeff:     -0.130D-05 0.286D-05 0.570D-05 0.381D-05-0.295D-04-0.147D-03
 Coeff:     -0.466D-03-0.138D-03 0.335D-02 0.360D-02 0.267D-02-0.393D-01
 Coeff:     -0.418D-01 0.235D-01 0.351D+00 0.698D+00
 Gap=     0.128 Goal=   None    Shift=    0.000
 RMSDP=1.65D-08 MaxDP=1.07D-06 DE= 4.55D-11 OVMax= 1.54D-06

 Cycle  17  Pass 1  IDiag  1:
 RMSU=  8.76D-09    CP:  7.27D-01  2.10D+00  9.60D-01  7.11D-01  8.03D-01
                    CP:  9.41D-01  1.43D+00  1.20D+00  1.56D+00  1.41D+00
                    CP:  1.28D+00  1.47D+00  1.15D+00  1.20D+00  1.27D+00
                    CP:  9.89D-01
 E= -1020.98615264513     Delta-E=        0.000000000004 Rises=F Damp=F
 DIIS: error= 2.58D-08 at cycle  17 NSaved=  17.
 NSaved=17 IEnMin=15 EnMin= -1020.98615264518     IErMin=17 ErrMin= 2.58D-08
 ErrMax= 2.58D-08  0.00D+00 EMaxC= 1.00D-01 BMatC= 4.60D-13 BMatP= 2.50D-12
 IDIUse=1 WtCom= 1.00D+00 WtEn= 0.00D+00
 Coeff-Com: -0.132D-05 0.225D-05 0.451D-05 0.767D-05 0.143D-05-0.354D-04
 Coeff-Com: -0.238D-03-0.395D-03 0.611D-03 0.173D-02 0.434D-02-0.570D-02
 Coeff-Com: -0.259D-01-0.543D-01 0.342D-01 0.321D+00 0.725D+00
 Coeff:     -0.132D-05 0.225D-05 0.451D-05 0.767D-05 0.143D-05-0.354D-04
 Coeff:     -0.238D-03-0.395D-03 0.611D-03 0.173D-02 0.434D-02-0.570D-02
 Coeff:     -0.259D-01-0.543D-01 0.342D-01 0.321D+00 0.725D+00
 Gap=     0.128 Goal=   None    Shift=    0.000
 RMSDP=7.18D-09 MaxDP=3.48D-07 DE= 4.09D-12 OVMax= 6.36D-07

 SCF Done:  E(RMN15) =  -1020.98615265     A.U. after   17 cycles
            NFock= 17  Conv=0.72D-08     -V/T= 2.0023
 KE= 1.018656571032D+03 PE=-6.045688974406D+03 EE= 2.174672225538D+03
 Leave Link  502 at Tue Dec  5 19:34:09 2023, MaxMem=  2147483648 cpu:            8848.1 elap:             350.7
 (Enter /opt/gaussian/g16-c01/g16/l601.exe)
 Copying SCF densities to generalized density rwf, IOpCl= 0 IROHF=0.

 **********************************************************************

            Population analysis using the SCF Density.

 **********************************************************************

 Orbital symmetries:
       Occupied  (A) (A) (A) (A) (A) (A) (A) (A) (A) (A) (A) (A)
                 (A) (A) (A) (A) (A) (A) (A) (A) (A) (A) (A) (A)
                 (A) (A) (A) (A) (A) (A) (A) (A) (A) (A) (A) (A)
                 (A) (A) (A) (A) (A) (A) (A) (A) (A) (A) (A) (A)
                 (A) (A) (A) (A) (A) (A) (A) (A) (A) (A) (A) (A)
                 (A) (A) (A) (A) (A) (A) (A) (A) (A) (A) (A) (A)
                 (A) (A) (A) (A) (A) (A) (A) (A) (A)
       Virtual   (A) (A) (A) (A) (A) (A) (A) (A) (A) (A) (A) (A)
                 (A) (A) (A) (A) (A) (A) (A) (A) (A) (A) (A) (A)
                 (A) (A) (A) (A) (A) (A) (A) (A) (A) (A) (A) (A)
                 (A) (A) (A) (A) (A) (A) (A) (A) (A) (A) (A) (A)
                 (A) (A) (A) (A) (A) (A) (A) (A) (A) (A) (A) (A)
                 (A) (A) (A) (A) (A) (A) (A) (A) (A) (A) (A) (A)
                 (A) (A) (A) (A) (A) (A) (A) (A) (A) (A) (A) (A)
                 (A) (A) (A) (A) (A) (A) (A) (A) (A) (A) (A) (A)
                 (A) (A) (A) (A) (A) (A) (A) (A) (A) (A) (A) (A)
                 (A) (A) (A) (A) (A) (A) (A) (A) (A) (A) (A) (A)
                 (A) (A) (A) (A) (A) (A) (A) (A) (A) (A) (A) (A)
                 (A) (A) (A) (A) (A) (A) (A) (A) (A) (A) (A) (A)
                 (A) (A) (A) (A) (A) (A) (A) (A) (A) (A) (A) (A)
                 (A) (A) (A) (A) (A) (A) (A) (A) (A) (A) (A) (A)
                 (A) (A) (A) (A) (A) (A) (A) (A) (A) (A) (A) (A)
                 (A) (A) (A) (A) (A) (A) (A) (A) (A) (A) (A) (A)
                 (A) (A) (A) (A) (A) (A) (A) (A) (A) (A) (A) (A)
                 (A) (A) (A) (A) (A) (A) (A) (A) (A) (A) (A) (A)
                 (A) (A) (A) (A) (A) (A) (A) (A) (A) (A) (A) (A)
                 (A) (A) (A) (A) (A) (A) (A) (A) (A) (A) (A) (A)
                 (A) (A) (A) (A) (A) (A) (A) (A) (A) (A) (A) (A)
                 (A) (A) (A) (A) (A) (A) (A) (A) (A) (A) (A) (A)
                 (A) (A) (A) (A) (A) (A) (A) (A) (A) (A) (A) (A)
                 (A) (A) (A) (A) (A) (A) (A) (A) (A) (A) (A) (A)
                 (A) (A) (A) (A) (A) (A) (A) (A) (A) (A) (A) (A)
                 (A) (A) (A) (A) (A) (A) (A) (A) (A) (A) (A) (A)
                 (A) (A) (A) (A) (A) (A) (A) (A) (A) (A) (A) (A)
                 (A) (A) (A) (A) (A) (A) (A) (A) (A) (A) (A) (A)
                 (A) (A) (A) (A) (A) (A) (A) (A) (A) (A) (A) (A)
                 (A) (A) (A) (A) (A) (A) (A) (A) (A) (A) (A) (A)
                 (A) (A) (A) (A) (A) (A) (A) (A) (A) (A) (A) (A)
                 (A) (A) (A) (A) (A) (A) (A) (A) (A) (A) (A) (A)
                 (A) (A) (A) (A) (A) (A) (A) (A) (A) (A) (A) (A)
                 (A) (A) (A) (A) (A) (A) (A) (A) (A) (A) (A) (A)
                 (A) (A) (A) (A) (A) (A) (A) (A) (A) (A) (A) (A)
                 (A) (A) (A) (A) (A) (A) (A) (A) (A) (A) (A) (A)
                 (A) (A) (A) (A) (A) (A) (A) (A) (A) (A) (A) (A)
                 (A) (A) (A) (A) (A) (A) (A) (A) (A) (A) (A) (A)
                 (A) (A) (A) (A) (A) (A) (A) (A) (A) (A) (A) (A)
                 (A) (A) (A) (A) (A) (A) (A) (A) (A) (A) (A) (A)
                 (A) (A) (A) (A) (A) (A) (A) (A) (A) (A) (A) (A)
                 (A) (A) (A) (A) (A) (A) (A) (A) (A) (A) (A) (A)
                 (A) (A) (A) (A) (A) (A) (A) (A) (A) (A) (A) (A)
                 (A) (A) (A) (A) (A) (A) (A) (A) (A) (A) (A) (A)
                 (A) (A) (A) (A) (A) (A) (A) (A)
 The electronic state is 1-A.
 Alpha  occ. eigenvalues --  -18.87034 -18.83222 -18.76471 -18.75578 -10.18702
 Alpha  occ. eigenvalues --  -10.15842 -10.08718 -10.08468 -10.07705 -10.07459
 Alpha  occ. eigenvalues --  -10.07382 -10.07318 -10.07176 -10.07085 -10.07016
 Alpha  occ. eigenvalues --  -10.06885 -10.06835 -10.06783 -10.05884 -10.05863
 Alpha  occ. eigenvalues --  -10.02496 -10.00036  -6.68682  -1.17225  -1.08748
 Alpha  occ. eigenvalues --   -1.05842  -1.04885  -0.97872  -0.92350  -0.88151
 Alpha  occ. eigenvalues --   -0.86526  -0.84313  -0.80343  -0.79235  -0.77564
 Alpha  occ. eigenvalues --   -0.75534  -0.73919  -0.71247  -0.68759  -0.68364
 Alpha  occ. eigenvalues --   -0.66623  -0.61439  -0.61149  -0.59033  -0.57909
 Alpha  occ. eigenvalues --   -0.57424  -0.56211  -0.55041  -0.53067  -0.52852
 Alpha  occ. eigenvalues --   -0.52282  -0.50405  -0.50194  -0.49789  -0.49035
 Alpha  occ. eigenvalues --   -0.48749  -0.48194  -0.47577  -0.47464  -0.46345
 Alpha  occ. eigenvalues --   -0.45846  -0.45365  -0.44742  -0.44404  -0.43749
 Alpha  occ. eigenvalues --   -0.43107  -0.41949  -0.41259  -0.41164  -0.40506
 Alpha  occ. eigenvalues --   -0.39267  -0.38603  -0.37716  -0.36596  -0.36433
 Alpha  occ. eigenvalues --   -0.35919  -0.33131  -0.30537  -0.28131  -0.25931
 Alpha  occ. eigenvalues --   -0.22784
 Alpha virt. eigenvalues --   -0.09996  -0.04589  -0.01286   0.00927   0.01441
 Alpha virt. eigenvalues --    0.02059   0.02414   0.03166   0.04012   0.04108
 Alpha virt. eigenvalues --    0.04479   0.04906   0.05506   0.06059   0.06215
 Alpha virt. eigenvalues --    0.07127   0.07278   0.07845   0.08183   0.08503
 Alpha virt. eigenvalues --    0.08569   0.08977   0.09622   0.09646   0.10311
 Alpha virt. eigenvalues --    0.10441   0.11011   0.11136   0.11414   0.11720
 Alpha virt. eigenvalues --    0.12086   0.12299   0.12444   0.12765   0.13173
 Alpha virt. eigenvalues --    0.13347   0.14121   0.14249   0.14413   0.14817
 Alpha virt. eigenvalues --    0.15079   0.15190   0.15444   0.15541   0.15696
 Alpha virt. eigenvalues --    0.16154   0.16617   0.16753   0.16831   0.17334
 Alpha virt. eigenvalues --    0.17641   0.17915   0.18157   0.18336   0.18681
 Alpha virt. eigenvalues --    0.18995   0.19187   0.19238   0.19425   0.20008
 Alpha virt. eigenvalues --    0.20117   0.20649   0.20742   0.20898   0.21005
 Alpha virt. eigenvalues --    0.21281   0.21597   0.21825   0.22242   0.22335
 Alpha virt. eigenvalues --    0.22845   0.22944   0.23283   0.23476   0.23631
 Alpha virt. eigenvalues --    0.23815   0.24233   0.24442   0.24775   0.24944
 Alpha virt. eigenvalues --    0.25719   0.25791   0.25943   0.26217   0.26393
 Alpha virt. eigenvalues --    0.26684   0.26768   0.27360   0.27840   0.28112
 Alpha virt. eigenvalues --    0.28253   0.28896   0.29206   0.29663   0.29780
 Alpha virt. eigenvalues --    0.29985   0.30407   0.30636   0.30940   0.31355
 Alpha virt. eigenvalues --    0.31801   0.31960   0.32512   0.33031   0.33136
 Alpha virt. eigenvalues --    0.33671   0.34064   0.34146   0.34641   0.35122
 Alpha virt. eigenvalues --    0.35578   0.36496   0.36847   0.37056   0.37272
 Alpha virt. eigenvalues --    0.37780   0.38129   0.39195   0.39599   0.40124
 Alpha virt. eigenvalues --    0.40229   0.40362   0.40801   0.41273   0.41715
 Alpha virt. eigenvalues --    0.42377   0.42813   0.43294   0.43487   0.43809
 Alpha virt. eigenvalues --    0.44282   0.44832   0.45593   0.46161   0.46178
 Alpha virt. eigenvalues --    0.47116   0.47321   0.47662   0.48773   0.49158
 Alpha virt. eigenvalues --    0.49796   0.50424   0.51232   0.51837   0.52196
 Alpha virt. eigenvalues --    0.52961   0.53109   0.53695   0.53945   0.54478
 Alpha virt. eigenvalues --    0.54914   0.55939   0.56249   0.56616   0.57196
 Alpha virt. eigenvalues --    0.57595   0.58261   0.58489   0.58670   0.59020
 Alpha virt. eigenvalues --    0.59485   0.59943   0.60240   0.60527   0.61361
 Alpha virt. eigenvalues --    0.61695   0.62701   0.62849   0.63780   0.63996
 Alpha virt. eigenvalues --    0.64460   0.64982   0.65021   0.65513   0.66005
 Alpha virt. eigenvalues --    0.66708   0.67041   0.67498   0.68136   0.68715
 Alpha virt. eigenvalues --    0.69074   0.69341   0.70396   0.71198   0.71368
 Alpha virt. eigenvalues --    0.71840   0.72252   0.72458   0.73418   0.73971
 Alpha virt. eigenvalues --    0.74121   0.74410   0.75153   0.75385   0.75979
 Alpha virt. eigenvalues --    0.76572   0.76846   0.77495   0.77841   0.78306
 Alpha virt. eigenvalues --    0.79289   0.79624   0.80122   0.80978   0.81592
 Alpha virt. eigenvalues --    0.81922   0.82026   0.83499   0.83837   0.85488
 Alpha virt. eigenvalues --    0.86040   0.86857   0.87944   0.88008   0.88610
 Alpha virt. eigenvalues --    0.89233   0.90211   0.91199   0.91583   0.92220
 Alpha virt. eigenvalues --    0.92815   0.93217   0.94353   0.95015   0.96054
 Alpha virt. eigenvalues --    0.96702   0.97570   0.97812   0.98401   0.99248
 Alpha virt. eigenvalues --    0.99934   1.01017   1.01860   1.02149   1.02573
 Alpha virt. eigenvalues --    1.03648   1.04396   1.05127   1.05435   1.06497
 Alpha virt. eigenvalues --    1.07085   1.07563   1.08850   1.09302   1.10042
 Alpha virt. eigenvalues --    1.11519   1.13498   1.14262   1.14421   1.14575
 Alpha virt. eigenvalues --    1.17140   1.17380   1.17872   1.18893   1.20744
 Alpha virt. eigenvalues --    1.22322   1.22588   1.24256   1.26592   1.26916
 Alpha virt. eigenvalues --    1.28027   1.30015   1.30779   1.31786   1.32565
 Alpha virt. eigenvalues --    1.33146   1.34243   1.35342   1.35645   1.36821
 Alpha virt. eigenvalues --    1.37218   1.37780   1.40147   1.41603   1.42459
 Alpha virt. eigenvalues --    1.43137   1.44125   1.45216   1.45782   1.46730
 Alpha virt. eigenvalues --    1.46915   1.48282   1.48757   1.49491   1.49675
 Alpha virt. eigenvalues --    1.50366   1.51414   1.51952   1.52297   1.53051
 Alpha virt. eigenvalues --    1.54196   1.54495   1.55219   1.55636   1.56445
 Alpha virt. eigenvalues --    1.56993   1.57458   1.58164   1.58250   1.59825
 Alpha virt. eigenvalues --    1.59914   1.61030   1.62258   1.62920   1.64693
 Alpha virt. eigenvalues --    1.65132   1.66147   1.66698   1.67278   1.67775
 Alpha virt. eigenvalues --    1.69255   1.70080   1.71144   1.71405   1.72448
 Alpha virt. eigenvalues --    1.72571   1.72676   1.73720   1.74841   1.75233
 Alpha virt. eigenvalues --    1.75999   1.76740   1.78208   1.78594   1.79592
 Alpha virt. eigenvalues --    1.81754   1.82295   1.83153   1.83905   1.84115
 Alpha virt. eigenvalues --    1.85588   1.86171   1.87272   1.88660   1.90354
 Alpha virt. eigenvalues --    1.90506   1.90675   1.91942   1.92684   1.92838
 Alpha virt. eigenvalues --    1.92890   1.94953   1.95466   1.96107   1.96651
 Alpha virt. eigenvalues --    1.97064   1.97832   1.98930   1.99612   1.99889
 Alpha virt. eigenvalues --    2.00876   2.02465   2.03478   2.03654   2.04370
 Alpha virt. eigenvalues --    2.05357   2.05877   2.09573   2.10190   2.10911
 Alpha virt. eigenvalues --    2.12528   2.13250   2.14012   2.15647   2.16606
 Alpha virt. eigenvalues --    2.17731   2.19272   2.21159   2.21551   2.22303
 Alpha virt. eigenvalues --    2.25254   2.28518   2.29770   2.29980   2.31017
 Alpha virt. eigenvalues --    2.35219   2.35374   2.36445   2.39216   2.40249
 Alpha virt. eigenvalues --    2.41723   2.42558   2.43323   2.44040   2.45239
 Alpha virt. eigenvalues --    2.45644   2.46893   2.46972   2.49020   2.49435
 Alpha virt. eigenvalues --    2.50515   2.51351   2.51998   2.52873   2.53603
 Alpha virt. eigenvalues --    2.54816   2.56380   2.57390   2.59430   2.60771
 Alpha virt. eigenvalues --    2.61853   2.62363   2.63807   2.65172   2.66270
 Alpha virt. eigenvalues --    2.66568   2.67315   2.67793   2.68817   2.69640
 Alpha virt. eigenvalues --    2.70203   2.70891   2.71663   2.72366   2.73155
 Alpha virt. eigenvalues --    2.73536   2.74961   2.75520   2.75634   2.77114
 Alpha virt. eigenvalues --    2.77752   2.78507   2.78654   2.79655   2.82236
 Alpha virt. eigenvalues --    2.82637   2.83536   2.85870   2.88419   2.88627
 Alpha virt. eigenvalues --    2.89314   2.90481   2.91467   2.92301   2.93785
 Alpha virt. eigenvalues --    2.94481   2.95370   2.96449   2.97472   2.98458
 Alpha virt. eigenvalues --    2.99329   3.03169   3.03831   3.05591   3.06462
 Alpha virt. eigenvalues --    3.06714   3.08813   3.13449   3.15776   3.18452
 Alpha virt. eigenvalues --    3.18956   3.19863   3.23519   3.25565   3.26546
 Alpha virt. eigenvalues --    3.29641   3.30384   3.33442   3.35451   3.36586
 Alpha virt. eigenvalues --    3.37216   3.38843   3.39726   3.40627   3.44189
 Alpha virt. eigenvalues --    3.45075   3.48172   3.49676   3.52233   3.55416
 Alpha virt. eigenvalues --    3.56791   3.57687   3.59867   3.61944   3.64369
 Alpha virt. eigenvalues --    3.66822   3.69248   3.72025   3.72435   3.73604
 Alpha virt. eigenvalues --    3.74992   3.76911   3.78007   3.80161   3.86849
 Alpha virt. eigenvalues --    3.89564   3.94655   3.95661   3.98834   4.02011
 Alpha virt. eigenvalues --    4.04088   4.09516   4.13845   4.14097   4.16937
 Alpha virt. eigenvalues --    4.17615   4.22986   4.26408   4.49091   4.71385
 Alpha virt. eigenvalues --    4.75363   4.98380   5.03801   5.07558   5.09122
 Alpha virt. eigenvalues --    5.19142   5.21383   5.23439   5.29753   5.59920
 Alpha virt. eigenvalues --    5.66878   5.70569   5.77787  14.21563  22.43059
[...]
 21,0.00000069,0.00000104,-0.00000144,0.00000047,0.00000039,0.00000215,
 -0.00000340,-0.00000161,-0.00000132,0.00000237,-0.00000221,-0.00000331
 ,-0.00000024,-0.00000071,0.00000157,0.00000583,-0.00000192,-0.00000571
 ,-0.00000712,-0.00000484,0.00003699,0.00001077,-0.00001097,0.00079574,
 0.00001684,-0.00001217,-0.15125755,0.22789551,0.00000226,0.00000510,-0
 .00000364,-0.00000033,-0.00001172,0.00001272,0.00000178,0.00000438,-0.
 00000967,-0.00000192,-0.00000546,-0.00000392,-0.00000621,0.00000593,0.
 00000281,0.00000219,-0.00000107,0.00000089,0.00000192,-0.00000313,-0.0
 0000647,0.00000761,0.00000076,-0.00000907,-0.00000841,-0.00000090,0.00
 000668,-0.00000006,0.00000193,-0.00000172,0.00000746,0.00001449,-0.000
 00454,-0.00000767,-0.00001041,0.00005247,-0.00001431,0.00002057,-0.000
 07550,0.00003460,0.00000651,-0.00010517,-0.00011403,0.00022849,-0.0031
 0157,-0.00023507,0.00012511,0.00324679,0.00995837,-0.01247424,-0.03743
 073,0.00134553,-0.00132112,0.00450218,-0.00016618,-0.00075780,0.008135
 50,-0.00004423,0.00006587,-0.00095826,-0.00006914,-0.00029809,0.005252
 08,-0.00000477,-0.00000846,0.00016042,-0.00000471,0.00000604,-0.000023
 88,0.00000223,-0.00000030,0.00000296,-0.00000231,0.00000094,-0.0000011
 0,-0.00000079,-0.00000052,-0.00000011,0.00000010,0.00000099,-0.0000000
 1,-0.00000034,-0.00000017,-0.00000018,0.00000096,-0.00000075,0.0000004
 1,0.00000280,-0.00000089,-0.00000056,0.00000009,-0.00000029,0.00000221
 ,-0.00000080,0.00000102,0.00000108,-0.00000049,-0.00000136,0.00000482,
 0.00000129,-0.00000838,0.00016595,0.00004005,0.00000706,0.00022762,-0.
 01073090,0.01402139,0.02590288,0.00000438,-0.00000600,0.00000016,0.000
 00593,0.00001784,0.00001186,-0.00002040,-0.00001149,-0.00002764,0.0000
 5944,-0.00002974,0.00001792,0.00002673,0.00000073,-0.00001284,-0.00001
 272,-0.00000173,0.00000656,-0.00002810,0.00000523,0.00000697,-0.000071
 58,0.00005474,0.00002494,0.00015642,-0.00001035,-0.00003254,-0.0000217
 9,-0.00000377,-0.00000886,-0.00014143,-0.00008514,-0.00000533,0.000164
 18,0.00008460,0.00001472,-0.00001959,0.00003431,0.00000603,0.00003501,
 -0.00029818,-0.00002448,-0.00043369,0.00017042,0.00000455,0.00149712,-
 0.00133169,-0.00002615,-0.00528004,0.00089976,0.00011931,-0.33414089,-
 0.05753622,-0.00190088,-0.01424190,-0.00704456,-0.00033967,-0.00079271
 ,0.00359698,0.00026912,0.00071754,0.00039812,0.00001456,-0.00013320,-0
 .00005387,-0.00000952,-0.00010422,0.00000120,-0.00000519,-0.00000276,0
 .00000590,0.00000969,-0.00000601,-0.00000092,-0.00000474,0.00000711,-0
 .00000324,0.00000149,0.00000110,-0.00000088,-0.00000084,0.00000123,-0.
 00000077,-0.00000051,-0.00000262,0.00000412,0.00000186,0.00000066,-0.0
 0000232,0.00000255,0.00000306,0.00000079,0.00000085,-0.00000116,-0.000
 00442,0.00000122,0.00000802,0.00000700,0.00000604,-0.00004124,-0.00001
 159,0.00000130,0.00001000,-0.00002857,-0.00000160,0.00070773,-0.000278
 92,-0.00005280,0.35208377,0.00000448,0.00000025,-0.00000375,-0.0000034
 7,-0.00000272,0.00000454,-0.00000163,0.00000460,-0.00000641,0.00001330
 ,-0.00002455,0.00001056,0.00000175,-0.00001174,-0.00000585,-0.00000193
 ,0.00000222,0.00000154,0.00000089,0.00001375,0.00000453,-0.00003470,0.
 00003714,0.00001267,0.00007622,-0.00000650,-0.00001491,-0.00000901,0.0
 0000002,-0.00000481,-0.00006667,-0.00003051,-0.00000090,0.00005373,-0.
 00000196,-0.00000148,0.00016772,-0.00036130,-0.00003993,-0.00047736,-0
 .00032795,0.00002736,-0.00096742,0.00066117,0.00004072,-0.00114480,-0.
 00539776,-0.00090434,-0.02991809,-0.00114532,-0.00021626,-0.05679561,-
 0.06969097,-0.00162511,0.02336686,0.00876415,0.00016688,0.00331300,-0.
 00322310,-0.00056327,-0.00015972,-0.00111797,-0.00004184,0.00030052,0.
 00038676,0.00008286,-0.00003560,0.00001547,-0.00000331,-0.00000044,-0.
 00000188,0.00000088,-0.00000068,0.00000107,-0.00000106,-0.00000189,0.0
 0000008,0.00000052,0.00000094,-0.00000040,-0.00000095,0.00000100,-0.00
 000032,0.00000014,-0.00000107,0.00000119,0.00000058,0.00000015,-0.0000
 0103,0.00000092,0.00000128,0.00000084,0.00000037,-0.00000060,-0.000002
 25,0.00000054,0.00000506,0.00000914,0.00000467,-0.00013469,-0.00002573
 ,-0.00000288,0.00003200,-0.00003114,-0.00001379,0.00051932,0.00094106,
 0.00039161,0.06157724,0.06953624,0.00000497,0.00000657,-0.00000422,-0.
 00000545,-0.00000878,0.00001215,0.00000268,0.00000351,-0.00000985,0.00
 001373,0.00000260,0.00001148,-0.00000321,0.00000469,0.00000218,0.00000
 097,-0.00000033,0.00000129,-0.00000061,-0.00000274,-0.00000751,-0.0000
 0399,-0.00000552,-0.00001805,-0.00000811,0.00000725,0.00001701,0.00000
 266,-0.00000251,0.00000803,0.00001253,-0.00001124,-0.00002141,0.000039
 12,0.00001781,0.00006852,-0.00001787,-0.00005899,0.00016064,-0.0000128
 9,0.00002387,-0.00061779,-0.00007377,0.00003367,-0.00002472,-0.0000097
 1,-0.00090306,0.00882343,-0.00188593,-0.00044175,0.00506264,-0.0018452
 3,-0.00160645,-0.03917982,0.00162382,0.00036003,0.00383214,0.00024057,
 -0.00057667,0.00528135,-0.00003134,-0.00004101,-0.00072982,0.00002845,
 0.00010800,-0.00084480,-0.00002342,0.00000183,0.00000130,-0.00000038,-
 0.00000304,0.00000295,-0.00000283,0.00000029,-0.00000192,-0.00000106,-
 0.00000071,0.00000100,-0.00000009,0.00000095,0.00000005,-0.00000004,-0
 .00000053,-0.00000067,0.00000054,-0.00000042,0.00000027,0.00000032,-0.
 00000031,-0.00000024,0.00000038,0.00000007,0.00000101,0.00000042,0.000
 00162,-0.00000071,-0.00000246,0.00000422,-0.00001018,-0.00001333,-0.00
 000641,0.00003529,0.00000456,-0.00000944,0.00014964,0.00000063,0.00039
 611,-0.00512588,0.00196350,0.00244487,0.02599481,0.00001577,0.00000523
 ,-0.00001450,-0.00002046,-0.00001099,0.00001217,0.00000167,0.00001500,
 -0.00001641,0.00005589,-0.00005995,0.00002624,0.00000151,-0.00003834,-
 0.00001374,-0.00000204,0.00000552,0.00000308,-0.00000022,0.00004969,0.
 00001236,-0.00007647,0.00009111,0.00002214,0.00016927,-0.00004659,-0.0
 0004388,-0.00002079,0.00000003,-0.00000468,-0.00019332,-0.00006749,-0.
 00000008,0.00019109,-0.00010032,-0.00000165,-0.00047098,-0.00036950,-0
 .00001958,-0.00032407,0.00018788,0.00001664,0.00040578,0.00020012,0.00
 000737,-0.00108211,0.00010919,0.00000349,-0.00234997,0.00335947,0.0002
 6451,0.01035462,0.02043804,0.00129097,-0.08877246,-0.08913817,-0.00551
 175,-0.00508079,-0.03015327,-0.00190898,-0.00547568,-0.00001568,0.0000
 6719,0.00043315,-0.00111644,-0.00006214,-0.00009262,0.00003108,-0.0000
 0160,-0.00000218,-0.00000256,0.00000616,-0.00000482,0.00000019,-0.0000
 0451,-0.00000245,-0.00000298,0.00000435,0.00000189,-0.00000088,-0.0000
 0304,0.00000265,-0.00000105,0.00000094,-0.00000371,0.00000295,0.000001
 77,0.00000010,-0.00000356,0.00000186,0.00000182,0.00000070,0.00000043,
 -0.00000133,-0.00000532,0.00000117,0.00000472,0.00000196,0.00000056,0.
 00000352,-0.00001564,0.00000020,-0.00001165,-0.00007078,-0.00000339,0.
 00031133,0.00098723,0.00005999,0.00075328,-0.00073398,-0.00006833,0.09
 028102,0.00001288,0.00000232,-0.00000859,-0.00001511,-0.00000376,0.000
 01807,-0.00000881,0.00000645,-0.00002888,0.00006479,-0.00005949,0.0000
 2303,0.00001709,-0.00002645,-0.00001787,-0.00000962,0.00000304,0.00000
 564,-0.00001390,0.00003454,0.00001363,-0.00009682,0.00010523,0.0000317
 1,0.00022269,-0.00003985,-0.00004830,-0.00002642,-0.00000116,-0.000014
 89,-0.00020257,-0.00011264,0.00001138,0.00033940,0.00007267,0.00000187
 ,-0.00040132,0.00002310,0.00004295,0.00016497,-0.00001144,-0.00002170,
 -0.00017864,-0.00016073,0.00004591,0.00065724,0.00059559,0.00008691,0.
 00373652,-0.00154949,-0.00047053,-0.01016106,-0.01592824,-0.00119231,-
 0.08981933,-0.31461399,-0.01755060,0.00077766,-0.00142387,-0.00040195,
 -0.00044346,0.00173758,-0.00047910,0.00010320,-0.00019067,-0.00001259,
 -0.00014845,0.00005705,0.00001398,-0.00000288,-0.00000177,0.00000701,-
 0.00000517,0.,-0.00000526,0.00000064,-0.00000215,0.00000288,0.00000196
 ,-0.00000126,-0.00000256,0.00000251,-0.00000109,0.00000038,-0.00000387
 ,0.00000443,0.00000207,0.00000158,-0.00000321,0.00000293,0.00000279,0.
 00000091,0.00000069,-0.00000182,-0.00000735,0.00000163,0.00000471,0.00
 000344,0.00000275,-0.00001050,-0.00001612,-0.00000392,0.00002227,0.000
 02796,-0.00000037,-0.00046423,-0.00087452,-0.00005881,0.00021559,0.000
 79707,0.00024009,0.09596623,0.33092328,0.00000745,0.00001205,-0.000010
 35,-0.00000894,-0.00002312,0.00002115,0.00000452,0.00001166,-0.0000144
 8,0.00001612,-0.00000449,0.00000645,-0.00000248,0.00001175,0.00000302,
 0.00000158,-0.00000204,0.00000170,-0.00000354,-0.00000626,-0.00001347,
 -0.00000004,0.00000352,-0.00000654,0.00000002,-0.00000671,0.00000985,-
 0.00000162,0.00000152,-0.00000502,-0.00001059,-0.00000680,0.00001546,0
 .00003300,-0.00000024,-0.00002264,-0.00003469,0.00001177,-0.00063693,0
 .00001235,0.00000035,0.00013668,-0.00002740,0.00003218,-0.00080839,0.0
 0004807,0.00009194,-0.00069316,0.00027522,-0.00046801,0.00525007,-0.00
 070871,-0.00134472,0.00315689,-0.00554603,-0.01757786,-0.03944826,0.00
 010416,-0.00023261,0.00471450,0.00008323,-0.00045818,0.00881055,0.0000
 0849,0.00000483,0.00017181,-0.00002521,0.00001294,-0.00002008,0.000001
 36,-0.00000480,0.00000487,-0.00000397,0.00000059,-0.00000351,-0.000002
 25,-0.00000016,0.00000399,-0.00000003,0.00000182,0.00000020,-0.0000003
 8,-0.00000066,-0.00000045,0.00000124,-0.00000076,0.00000080,0.00000139
 ,0.00000064,0.00000004,0.00000001,0.00000017,0.00000102,-0.00000165,-0
 .00000124,0.00000076,-0.00000236,0.00000084,0.00000352,-0.00000097,-0.
 00000482,0.00004729,-0.00000026,0.00000207,0.00003678,-0.00003166,-0.0
 0006743,0.00008034,-0.00000979,0.00024366,-0.00286469,0.00588594,0.019
 39423,0.02708888,-0.00000630,-0.00000683,0.00000749,0.00000023,-0.0000
 0475,-0.00001355,0.00001628,0.00000401,0.00002717,-0.00006517,0.000034
 26,-0.00001969,-0.00002735,-0.00001090,0.00001299,0.00001304,0.0000050
 9,-0.00000781,0.00004324,0.00000265,-0.00000886,0.00007447,-0.00005941
 ,-0.00002344,-0.00016610,0.00002504,0.00003739,0.00002281,0.00000259,0
 .00000905,0.00016299,0.00008825,0.00000243,-0.00015141,-0.00009165,-0.
 00001635,0.00003595,0.00048164,0.00000972,0.00034843,-0.00006661,-0.00
 000261,0.00025129,-0.00056839,-0.00002495,-0.00009151,-0.00234142,-0.0
 0011640,-0.00027610,-0.00075286,-0.00005182,-0.00460455,-0.00245994,-0
 .00007786,-0.01412465,0.02413430,0.00172273,-0.18383583,0.14194429,0.0
 1024568,0.00890685,-0.00869447,-0.00058581,0.00125602,-0.00122765,-0.0
 0010916,0.00009054,0.00003359,0.00001127,0.00000741,-0.00000276,-0.000
 01494,0.00000997,0.00000491,0.00000760,-0.00001309,0.00000637,-0.00000
 532,0.00000059,0.00000145,0.00000076,-0.00000046,0.00000044,0.00000012
 ,0.00000307,-0.00000397,-0.00000203,-0.00000070,0.00000270,-0.00000212
 ,-0.00000277,0.00000011,-0.00000043,0.00000111,0.00000549,-0.00000136,
 -0.00000311,-0.00000027,-0.00000096,-0.00001366,0.00002202,-0.00000061
 ,-0.00004998,-0.00015507,-0.00001074,0.00002292,0.00011291,-0.00000116
 ,-0.00078388,0.00111558,0.00007458,0.00099618,-0.00029297,-0.00006498,
 0.19207001,0.00002202,0.00002289,-0.00002498,-0.00004810,-0.00006304,0
 .00001580,0.00003801,0.00005460,0.00001111,-0.00001845,-0.00006474,0.0
 0001140,-0.00004359,-0.00007141,-0.00000697,0.00001476,0.00001685,-0.0
 0000497,0.00006500,0.00006556,0.00001423,-0.00003322,0.00009324,0.0000
 1082,0.00006037,-0.00004552,-0.00001598,0.00000154,0.00000481,-0.00000
 158,-0.00004102,0.00000170,0.00000671,0.00018891,-0.00018491,-0.000048
 50,-0.00029992,0.00006862,-0.00002352,-0.00010196,0.00009008,0.0000024
 4,0.00148839,-0.00050355,-0.00004458,-0.00338418,-0.00365635,-0.000551
 81,-0.00077908,-0.00007532,0.00006943,-0.00182809,0.00089686,-0.000486
 80,-0.00658587,0.00853484,0.00025368,0.14219526,-0.21642510,-0.0126732
 7,0.02046589,-0.01703445,-0.00146487,0.00179566,0.00137063,0.00027186,
 -0.00009271,0.00017531,0.00004406,0.00000662,-0.00003493,-0.00001375,0
 .00000813,0.00000865,0.00000302,-0.00003125,0.00001127,0.00000074,0.00
 000299,-0.00000077,-0.00000407,0.00000319,-0.00000021,0.00000201,-0.00
 000088,-0.00000088,-0.00000046,-0.00000070,-0.00000093,0.00000015,-0.0
 0000021,0.00000284,0.00000054,-0.00000172,-0.00000255,-0.00000060,0.00
 001021,0.00001566,0.00000687,-0.00006558,0.00003006,0.00000279,-0.0001
 4024,-0.00040783,-0.00003671,0.00011168,-0.00000655,0.00006776,-0.0003
 4592,0.00024737,0.00002373,0.00047857,0.00062871,0.00038495,-0.1520037
 6,0.22633090,0.00003493,0.00006738,-0.00004920,-0.00004875,-0.00010556
 ,0.00006247,0.00003845,0.00006593,-0.00002299,0.00002237,-0.00002501,0
 .00004724,-0.00000788,0.00004469,0.00001107,0.00000608,-0.00000779,0.0
 0001066,-0.00001439,-0.00002914,-0.00006146,-0.00001746,0.00003376,-0.
 00001896,0.00004296,0.00000196,-0.00001442,0.00000079,-0.00000169,0.00
 000298,-0.00002877,-0.00002806,-0.00004161,0.00003013,0.00003221,0.000
 20010,-0.00003669,-0.00005285,0.00002547,-0.00001938,0.00002615,-0.000
 11436,0.00011195,-0.00004490,0.00016190,-0.00017708,-0.00055906,0.0051
 0904,-0.00006701,0.00005241,-0.00098256,-0.00005423,-0.00046315,0.0082
 8903,-0.00032338,0.00009320,0.00522403,0.01031685,-0.01278198,-0.03836
 033,0.00132201,-0.00124429,0.00310520,0.00010080,0.00035203,-0.0030114
 2,-0.00002178,-0.00000534,-0.00006075,0.00000348,-0.00004885,-0.000003
 57,-0.00000029,0.00000242,-0.00000654,-0.00003697,0.00000356,0.0000181
 3,-0.00000169,0.00000368,0.00000013,-0.00000073,-0.00000147,-0.0000024
 6,0.00000377,-0.00000173,0.00000145,0.00000139,-0.00000111,-0.00000017
 ,-0.00000004,-0.00000020,0.00000096,-0.00000079,-0.00000042,0.00000096
 ,0.00000165,-0.00000347,0.00001075,-0.00000575,0.00000148,0.00003913,-
 0.00001064,-0.00003752,0.00016340,0.00000059,0.00006558,-0.00103611,-0
 .00001938,0.00001396,-0.00004088,-0.00000591,0.00038418,-0.00520284,-0
 .01105460,0.01420697,0.02631151,-0.00000326,-0.00017601,0.00010342,-0.
 00010760,-0.00009053,-0.00011957,0.00010952,0.00011065,0.00013549,-0.0
 0079615,-0.00028593,-0.00014845,-0.00024565,-0.00039050,0.00003514,0.0
 0008652,0.00008021,-0.00005942,0.00057069,0.00020155,-0.00004474,0.000
 07605,0.00039461,-0.00003209,-0.00002426,-0.00016253,0.00006237,0.0000
 2166,0.00003108,-0.00003902,0.00012244,0.00036822,0.00025727,0.0011680
 5,-0.00063721,-0.00041370,0.01005282,-0.00677749,-0.00037450,0.0000057
 6,-0.00272420,-0.00013687,-0.00067177,-0.00101392,-0.00010397,-0.00364
 955,-0.00218216,-0.00000455,-0.00053734,0.00115349,0.00004468,-0.00002
 069,0.00023984,0.00001958,0.00041535,-0.00024299,-0.00001487,0.0012694
 0,0.00143325,0.00004678,-0.01370668,0.02156494,0.00159228,-0.18355806,
 0.14475118,0.00884841,-0.00379532,-0.00175997,0.00053856,0.00017678,-0
 .00006493,-0.00004189,0.00005971,0.00006680,0.00003891,-0.00004830,0.0
 0018305,0.00001989,0.00002394,0.00000742,-0.00001661,0.00001478,0.0000
 0301,0.00000369,0.00000928,-0.00001105,-0.00000703,0.00000579,0.000007
 57,-0.00000115,-0.00000583,0.00001164,0.00000146,-0.00000648,-0.000008
 38,-0.00000285,0.00004920,0.00011592,0.00002883,0.00046114,-0.00060689
 ,0.00003400,-0.00001157,0.00008605,0.00000735,-0.00037328,-0.00008334,
 -0.00000262,0.00003724,-0.00006167,-0.00000440,0.00000287,-0.00000779,
 0.00000341,-0.00011677,-0.00111074,-0.00008460,0.19293959,-0.00009948,
 0.00009739,0.00012084,0.00002304,-0.00012918,-0.00008805,0.00003099,0.
 00005363,0.00011097,-0.00096345,0.00023905,-0.00019700,-0.00005794,0.0
 0023848,0.00006847,0.00001187,-0.00006677,-0.00002711,-0.00009562,-0.0
 0027545,-0.00003222,0.00030942,0.00024650,-0.00000757,-0.00025873,-0.0
 0008418,-0.00002486,0.00005289,0.00000825,0.00004235,0.00022035,0.0003
 9738,0.00008677,0.00240660,-0.00217611,-0.00037569,0.02006634,-0.01657
 859,-0.00157477,-0.00339550,-0.00369181,-0.00064890,-0.00052479,0.0001
 1900,0.00004124,-0.00209665,0.00022164,-0.00036402,-0.00039621,0.00022
 893,0.00004477,-0.00004847,0.00025698,0.00002354,0.00037581,-0.0000859
 0,-0.00002154,-0.00124029,0.00131678,0.00032569,-0.00592219,0.00827135
 ,0.00024508,0.14221718,-0.21719951,-0.01209483,0.00003526,0.00198524,0
 .00060442,-0.00004922,-0.00001755,-0.00015487,0.00005655,-0.00003796,0
 .00002139,-0.00002714,-0.00003820,-0.00007211,-0.00001354,-0.00000143,
 0.00000783,-0.00001550,-0.00000246,0.00000421,0.00002222,-0.00000770,-
 0.00001189,-0.00000525,0.00000111,-0.00000445,-0.00000851,0.00001217,0
 .00000158,0.00000002,0.00001571,-0.00000759,0.00007879,0.00010469,0.00
 006305,0.00099502,-0.00084525,-0.00009207,0.00010174,0.00000209,0.0000
 6957,-0.00012836,-0.00002423,-0.00001208,0.00001571,-0.00001451,-0.000
 00183,0.00002329,0.00000589,-0.00001255,0.00071599,-0.00009242,-0.0000
 0797,-0.15241227,0.22754699,0.00006830,0.00022049,-0.00006752,-0.00023
 013,-0.00047518,0.00036456,0.00016145,0.00026955,-0.00012334,-0.000129
 49,-0.00025361,0.00002069,0.00007816,0.00022189,0.00005935,0.00000627,
 -0.00004919,0.00004418,-0.00016420,-0.00010945,-0.00024808,0.00007030,
 0.00029628,-0.00012242,0.00028371,-0.00034257,0.00025366,-0.00006335,0
 .00002832,-0.00009155,-0.00038944,-0.00016901,0.00023128,0.00098986,-0
 .00015229,-0.00475208,-0.00011467,-0.00167510,0.00525310,0.00011054,-0
 .00065313,0.00663143,-0.00022663,-0.00000755,-0.00103640,-0.00013369,-
 0.00021375,0.00552296,-0.00006016,0.00004941,-0.00026795,-0.00000881,0
 .00007167,-0.00008601,0.00008204,-0.00005588,-0.00001163,-0.00018200,0
 .00025218,-0.00330382,-0.00010239,0.00043400,0.00479051,0.00925042,-0.
 01226434,-0.04046758,0.00087944,0.00083021,0.00010260,0.00005555,-0.00
 026960,-0.00025768,0.00012576,0.00004415,0.00000343,-0.00017969,0.0001
 0588,0.00005872,-0.00000888,0.00000685,0.00000336,-0.00000944,-0.00000
 268,-0.00000402,0.00000872,-0.00000143,0.00000071,0.00000088,0.0000102
 5,0.00000621,0.00000148,0.00000591,0.00000784,-0.00001788,-0.00004378,
 0.00001341,-0.00003358,0.00002220,-0.00012589,0.00002229,-0.00009147,0
 .00047919,0.00000288,0.00004811,-0.00080469,-0.00001574,-0.00001267,0.
 00013729,-0.00000243,-0.00000355,0.00003600,-0.00000539,-0.00001566,0.
 00018418,0.00004855,-0.00000765,0.00023504,-0.01016863,0.01395218,0.02
 733095\\-0.00000334,-0.00000739,-0.00000652,-0.00000271,0.00000402,-0.
 00000323,-0.00000107,0.00000264,0.00000263,-0.00001333,-0.00001672,0.0
 0000580,0.00001266,0.00002346,-0.00000315,0.00000100,-0.00000878,0.000
 00658,-0.00000773,-0.00001670,-0.00000263,0.00000357,0.00002237,0.0000
 0864,0.00000172,-0.00000846,-0.00000912,-0.00000026,-0.00000096,0.0000
 0410,-0.00000028,0.00000124,-0.00000730,-0.00000155,-0.00000802,0.0000
 0476,0.00000224,0.00000285,-0.00000221,0.00000227,-0.00000131,-0.00000
 045,0.00000114,-0.00000026,-0.00000044,-0.00000263,0.00000272,-0.00000
 028,0.00000037,0.00000155,-0.00000080,-0.00000021,0.00000057,0.0000005
 2,0.00000049,0.00000039,-0.00000023,-0.00000056,-0.00000019,0.00000053
 ,0.00000128,-0.00000013,-0.00000025,-0.00000197,-0.00000199,-0.0000019
 3,0.00000763,0.00000529,0.00000673,0.,0.00000373,0.00000401,0.00000082
 ,0.00000308,-0.00000041,-0.00000127,-0.00000119,0.00000407,-0.00000115
 ,-0.00000057,-0.00000194,-0.00000036,-0.00000395,-0.00000206,-0.000002
 29,0.00000108,0.00000077,0.00000044,-0.00000179,-0.00000205,0.00000227
 ,-0.00000185,-0.00000204,0.00000132,0.00000004,-0.00000460,0.00000157,
 -0.00000097,0.00000174,0.00000005,0.00000110,-0.00000068,0.00000046,0.
 00000073,-0.00000079,0.00000085,0.00000050,-0.00000065,-0.00000043,0.0
 0000155,-0.00000007,-0.00000086,0.00000106,0.00000082,-0.00000064,0.00
 000117,0.00000102,0.00000051,0.00000008,0.00000106\\\@
 The archive entry for this job was punched.


 WE SHOULD BE CAREFUL TO GET OUT OF AN EXPERIENCE ONLY THE WISDOM
 THAT IS IN IT -- AND STOP THERE;
 LEST WE BE LIKE THE CAT THAT SITS DOWN ON A HOT STOVE-LID.
 SHE WILL NEVER SIT DOWN ON A HOT STOVE LID AGAIN;
 BUT ALSO SHE WILL NEVER SIT DOWN ON A COLD ONE ANY MORE.

                                                     -- MARK TWAIN
 Job cpu time:       0 days 17 hours 57 minutes 40.1 seconds.
 Elapsed time:       0 days  0 hours 42 minutes  3.1 seconds.
 File lengths (MBytes):  RWF=   1384 Int=      0 D2E=      0 Chk=     40 Scr=      1
 Normal termination of Gaussian 16 at Tue Dec  5 23:43:05 2023.
