 Entering Gaussian System, Link 0=g16
 Input=/home/exlonk/in_progress/3384.inp
 Output=/home/exlonk/in_progress/3384.log
 Initial command:
 /opt/gaussian/g16-c01/g16/l1.exe "/lustre/tmp/slurm/2182748/Gau-1773227.inp" -scrdir="/lustre/tmp/slurm/2182748/"
 Default CPUs for threads: 0-4,7-9,13-15,19-20,24-28,31-32,36-38,42-44
 Default is to use a total of  26 processors:
                               26 via shared-memory
                                1 via Linda
 Entering Link 1 = /opt/gaussian/g16-c01/g16/l1.exe PID=   1773228.
  
 Copyright (c) 1988-2019, Gaussian, Inc.  All Rights Reserved.
  
 This is part of the Gaussian(R) 16 program.  It is based on
 the Gaussian(R) 09 system (copyright 2009, Gaussian, Inc.),
 the Gaussian(R) 03 system (copyright 2003, Gaussian, Inc.),
 the Gaussian(R) 98 system (copyright 1998, Gaussian, Inc.),
 the Gaussian(R) 94 system (copyright 1995, Gaussian, Inc.),
 the Gaussian 92(TM) system (copyright 1992, Gaussian, Inc.),
 the Gaussian 90(TM) system (copyright 1990, Gaussian, Inc.),
 the Gaussian 88(TM) system (copyright 1988, Gaussian, Inc.),
 the Gaussian 86(TM) system (copyright 1986, Carnegie Mellon
 University), and the Gaussian 82(TM) system (copyright 1983,
 Carnegie Mellon University). Gaussian is a federally registered
 trademark of Gaussian, Inc.
  
 This software contains proprietary and confidential information,
 including trade secrets, belonging to Gaussian, Inc.
  
 This software is provided under written license and may be
 used, copied, transmitted, or stored only in accord with that
 written license.
  
 The following legend is applicable only to US Government
 contracts under FAR:
  
                    RESTRICTED RIGHTS LEGEND
  
 Use, reproduction and disclosure by the US Government is
 subject to restrictions as set forth in subparagraphs (a)
 and (c) of the Commercial Computer Software - Restricted
 Rights clause in FAR 52.227-19.
  
 Gaussian, Inc.
 340 Quinnipiac St., Bldg. 40, Wallingford CT 06492
  
  
 ---------------------------------------------------------------
 Warning -- This program may not be used in any manner that
 competes with the business of Gaussian, Inc. or will provide
 assistance to any competitor of Gaussian, Inc.  The licensee
 of this program is prohibited from giving any competitor of
 Gaussian, Inc. access to this program.  By using this program,
 the user acknowledges that Gaussian, Inc. is engaged in the
 business of creating and licensing software in the field of
 computational chemistry and represents and warrants to the
 licensee that it is not a competitor of Gaussian, Inc. and that
 it will not use this program in any manner prohibited above.
 ---------------------------------------------------------------
  

 Cite this work as:
 Gaussian 16, Revision C.01,
 M. J. Frisch, G. W. Trucks, H. B. Schlegel, G. E. Scuseria, 
 M. A. Robb, J. R. Cheeseman, G. Scalmani, V. Barone, 
 G. A. Petersson, H. Nakatsuji, X. Li, M. Caricato, A. V. Marenich, 
 J. Bloino, B. G. Janesko, R. Gomperts, B. Mennucci, H. P. Hratchian, 
 J. V. Ortiz, A. F. Izmaylov, J. L. Sonnenberg, D. Williams-Young, 
 F. Ding, F. Lipparini, F. Egidi, J. Goings, B. Peng, A. Petrone, 
 T. Henderson, D. Ranasinghe, V. G. Zakrzewski, J. Gao, N. Rega, 
 G. Zheng, W. Liang, M. Hada, M. Ehara, K. Toyota, R. Fukuda, 
 J. Hasegawa, M. Ishida, T. Nakajima, Y. Honda, O. Kitao, H. Nakai, 
 T. Vreven, K. Throssell, J. A. Montgomery, Jr., J. E. Peralta, 
 F. Ogliaro, M. J. Bearpark, J. J. Heyd, E. N. Brothers, K. N. Kudin, 
 V. N. Staroverov, T. A. Keith, R. Kobayashi, J. Normand, 
 K. Raghavachari, A. P. Rendell, J. C. Burant, S. S. Iyengar, 
 J. Tomasi, M. Cossi, J. M. Millam, M. Klene, C. Adamo, R. Cammi, 
 J. W. Ochterski, R. L. Martin, K. Morokuma, O. Farkas, 
 J. B. Foresman, and D. J. Fox, Gaussian, Inc., Wallingford CT, 2019.
 
 ******************************************
 Gaussian 16:  EM64L-G16RevC.01  3-Jul-2019
                 5-Dec-2023 
 ******************************************
 %nproc=26
 Will use up to   26 processors via shared memory.
 %mem=16GB
 %chk=/home/exlonk/in_progress/3384.chk
 ------------------------------
 #p MN15/6-311++G(d,p) opt freq
 ------------------------------
 1/18=20,19=15,26=3,38=1/1,3;
 2/9=110,12=2,17=6,18=5,40=1/2;
 3/5=4,6=6,7=1111,11=2,25=1,30=1,71=1,74=-73/1,2,3;
 4//1;
 5/5=2,38=5/2;
 6/7=2,8=2,9=2,10=2,28=1/1;
 7//1,2,3,16;
 1/18=20,19=15,26=3/3(2);
 2/9=110/2;
 99//99;
 2/9=110/2;
 3/5=4,6=6,7=1111,11=2,25=1,30=1,71=1,74=-73/1,2,3;
 4/5=5,16=3,69=1/1;
 5/5=2,38=5/2;
 7//1,2,3,16;
 1/18=20,19=15,26=3/3(-5);
 2/9=110/2;
 6/7=2,8=2,9=2,10=2,19=2,28=1/1;
 99/9=1/99;
 Leave Link    1 at Tue Dec  5 07:30:08 2023, MaxMem=  2147483648 cpu:               7.7 elap:               0.4
 (Enter /opt/gaussian/g16-c01/g16/l101.exe)
 ---------------
 name file: 3384
 ---------------
 Symbolic Z-matrix:
 Charge =  0 Multiplicity = 1
 C                    -0.53829   2.50497   2.52693 
 C                    -0.1756    3.19192   1.2665 
 O                    -0.06503   4.39176   1.2133 
 B                     0.06448   2.30565  -0.01602 
 C                     0.21765   3.22509  -1.29359 
 C                    -0.99177   3.68375  -2.00345 
 O                     1.32072   3.55104  -1.68732 
 O                     1.34356   1.58123   0.15902 
 C                     1.35799   0.19835   0.20146 
 C                     2.65176  -0.48379   0.377 
 C                     2.71614  -1.84714   0.42492 
 C                     3.93709  -2.47119   0.58996 
 C                     5.07089  -1.7006    0.70341 
 C                     6.27573  -2.37537   0.86798 
 C                     7.43655  -1.64059   0.98571 
 C                     7.38231  -0.26425   0.93863 
 C                     6.18963   0.40587   0.77565 
 C                     5.00896  -0.32664   0.65547 
 C                     3.7924    0.28325   0.49139 
 C                     0.2286   -0.46005   0.08512 
 C                    -1.08631   0.15474  -0.09099 
 C                    -2.32304  -0.61467  -0.21696 
 C                    -2.36124  -1.98257  -0.18139 
 C                    -3.5566   -2.6899   -0.30421 
 C                    -4.73599  -1.99955  -0.46615 
 C                    -5.95838  -2.66084  -0.59356 
 C                    -7.15036  -1.99329  -0.75633 
 C                    -7.1182   -0.61846  -0.79283 
 C                    -5.92675   0.05078  -0.66936 
 C                    -4.73602  -0.62469  -0.50651 
 C                    -3.52813   0.03967  -0.38092 
 O                    -1.12235   1.42418  -0.13269 
 H                    -0.90624   3.19318   3.30522 
 H                     0.3055    1.87564   2.89099 
 H                    -1.38334   1.7789    2.34263 
 H                    -1.44843   2.85576  -2.58073 
 H                    -1.72809   4.15407  -1.297 
 H                    -0.73893   4.47872  -2.73285 
 H                     1.86119  -2.51054   0.34181 
 H                     3.97909  -3.56046   0.62711 
 H                     6.27176  -3.4481    0.89913 
 H                     8.36599  -2.17269   1.113 
 H                     8.30141   0.29396   1.03254 
 H                     6.11623   1.48767   0.73495 
 H                     3.73557   1.37598   0.45235 
 H                     0.20684  -1.56051   0.1149 
 H                    -1.46396  -2.57136  -0.05632 
 H                    -3.58624  -3.76764  -0.27614 
 H                    -5.90876  -3.74499  -0.55579 
 H                    -8.08748  -2.55228  -0.85248 
 H                    -8.07421  -0.09719  -0.92296 
 H                    -5.92982   1.12974  -0.7014 
 H                    -3.50849   1.12348  -0.41038 
 
 ITRead=  0  0  0  0  0  0  0  0  0  0  0  0  0  0  0  0  0  0  0  0
 ITRead=  0  0  0  0  0  0  0  0  0  0  0  0  0  0  0  0  0  0  0  0
 ITRead=  0  0  0  0  0  0  0  0  0  0  0  0  0
 MicOpt= -1 -1 -1 -1 -1 -1 -1 -1 -1 -1 -1 -1 -1 -1 -1 -1 -1 -1 -1 -1
 MicOpt= -1 -1 -1 -1 -1 -1 -1 -1 -1 -1 -1 -1 -1 -1 -1 -1 -1 -1 -1 -1
 MicOpt= -1 -1 -1 -1 -1 -1 -1 -1 -1 -1 -1 -1 -1
 NAtoms=     53 NQM=       53 NQMF=       0 NMMI=      0 NMMIF=      0
                NMic=       0 NMicF=      0.
                    Isotopes and Nuclear Properties:
 (Nuclear quadrupole moments (NQMom) in fm**2, nuclear magnetic moments (NMagM)
  in nuclear magnetons)

  Atom         1           2           3           4           5           6           7           8           9          10
 IAtWgt=          12          12          16          11          12          12          16          16          12          12
 AtmWgt=  12.0000000  12.0000000  15.9949146  11.0093053  12.0000000  12.0000000  15.9949146  15.9949146  12.0000000  12.0000000
 NucSpn=           0           0           0           3           0           0           0           0           0           0
 AtZEff=  -0.0000000  -0.0000000  -0.0000000  -0.0000000  -0.0000000  -0.0000000  -0.0000000  -0.0000000  -0.0000000  -0.0000000
 NQMom=    0.0000000   0.0000000   0.0000000   4.0590000   0.0000000   0.0000000   0.0000000   0.0000000   0.0000000   0.0000000
 NMagM=    0.0000000   0.0000000   0.0000000   2.6886370   0.0000000   0.0000000   0.0000000   0.0000000   0.0000000   0.0000000
 AtZNuc=   6.0000000   6.0000000   8.0000000   5.0000000   6.0000000   6.0000000   8.0000000   8.0000000   6.0000000   6.0000000

  Atom        11          12          13          14          15          16          17          18          19          20
 IAtWgt=          12          12          12          12          12          12          12          12          12          12
 AtmWgt=  12.0000000  12.0000000  12.0000000  12.0000000  12.0000000  12.0000000  12.0000000  12.0000000  12.0000000  12.0000000
 NucSpn=           0           0           0           0           0           0           0           0           0           0
 AtZEff=  -0.0000000  -0.0000000  -0.0000000  -0.0000000  -0.0000000  -0.0000000  -0.0000000  -0.0000000  -0.0000000  -0.0000000
 NQMom=    0.0000000   0.0000000   0.0000000   0.0000000   0.0000000   0.0000000   0.0000000   0.0000000   0.0000000   0.0000000
 NMagM=    0.0000000   0.0000000   0.0000000   0.0000000   0.0000000   0.0000000   0.0000000   0.0000000   0.0000000   0.0000000
 AtZNuc=   6.0000000   6.0000000   6.0000000   6.0000000   6.0000000   6.0000000   6.0000000   6.0000000   6.0000000   6.0000000

  Atom        21          22          23          24          25          26          27          28          29          30
 IAtWgt=          12          12          12          12          12          12          12          12          12          12
 AtmWgt=  12.0000000  12.0000000  12.0000000  12.0000000  12.0000000  12.0000000  12.0000000  12.0000000  12.0000000  12.0000000
 NucSpn=           0           0           0           0           0           0           0           0           0           0
 AtZEff=  -0.0000000  -0.0000000  -0.0000000  -0.0000000  -0.0000000  -0.0000000  -0.0000000  -0.0000000  -0.0000000  -0.0000000
 NQMom=    0.0000000   0.0000000   0.0000000   0.0000000   0.0000000   0.0000000   0.0000000   0.0000000   0.0000000   0.0000000
 NMagM=    0.0000000   0.0000000   0.0000000   0.0000000   0.0000000   0.0000000   0.0000000   0.0000000   0.0000000   0.0000000
 AtZNuc=   6.0000000   6.0000000   6.0000000   6.0000000   6.0000000   6.0000000   6.0000000   6.0000000   6.0000000   6.0000000

  Atom        31          32          33          34          35          36          37          38          39          40
 IAtWgt=          12          16           1           1           1           1           1           1           1           1
 AtmWgt=  12.0000000  15.9949146   1.0078250   1.0078250   1.0078250   1.0078250   1.0078250   1.0078250   1.0078250   1.0078250
 NucSpn=           0           0           1           1           1           1           1           1           1           1
 AtZEff=  -0.0000000  -0.0000000  -0.0000000  -0.0000000  -0.0000000  -0.0000000  -0.0000000  -0.0000000  -0.0000000  -0.0000000
 NQMom=    0.0000000   0.0000000   0.0000000   0.0000000   0.0000000   0.0000000   0.0000000   0.0000000   0.0000000   0.0000000
 NMagM=    0.0000000   0.0000000   2.7928460   2.7928460   2.7928460   2.7928460   2.7928460   2.7928460   2.7928460   2.7928460
 AtZNuc=   6.0000000   8.0000000   1.0000000   1.0000000   1.0000000   1.0000000   1.0000000   1.0000000   1.0000000   1.0000000

  Atom        41          42          43          44          45          46          47          48          49          50
 IAtWgt=           1           1           1           1           1           1           1           1           1           1
 AtmWgt=   1.0078250   1.0078250   1.0078250   1.0078250   1.0078250   1.0078250   1.0078250   1.0078250   1.0078250   1.0078250
 NucSpn=           1           1           1           1           1           1           1           1           1           1
 AtZEff=  -0.0000000  -0.0000000  -0.0000000  -0.0000000  -0.0000000  -0.0000000  -0.0000000  -0.0000000  -0.0000000  -0.0000000
 NQMom=    0.0000000   0.0000000   0.0000000   0.0000000   0.0000000   0.0000000   0.0000000   0.0000000   0.0000000   0.0000000
 NMagM=    2.7928460   2.7928460   2.7928460   2.7928460   2.7928460   2.7928460   2.7928460   2.7928460   2.7928460   2.7928460
 AtZNuc=   1.0000000   1.0000000   1.0000000   1.0000000   1.0000000   1.0000000   1.0000000   1.0000000   1.0000000   1.0000000

  Atom        51          52          53
 IAtWgt=           1           1           1
 AtmWgt=   1.0078250   1.0078250   1.0078250
 NucSpn=           1           1           1
 AtZEff=  -0.0000000  -0.0000000  -0.0000000
 NQMom=    0.0000000   0.0000000   0.0000000
 NMagM=    2.7928460   2.7928460   2.7928460
 AtZNuc=   1.0000000   1.0000000   1.0000000
 Leave Link  101 at Tue Dec  5 07:30:08 2023, MaxMem=  2147483648 cpu:               9.6 elap:               0.5
 (Enter /opt/gaussian/g16-c01/g16/l103.exe)

 GradGradGradGradGradGradGradGradGradGradGradGradGradGradGradGradGradGrad
 Berny optimization.
 Initialization pass.
                           ----------------------------
                           !    Initial Parameters    !
                           ! (Angstroms and Degrees)  !
 --------------------------                            --------------------------
 ! Name  Definition              Value          Derivative Info.                !
 --------------------------------------------------------------------------------
 ! R1    R(1,2)                  1.4806         estimate D2E/DX2                !
 ! R2    R(1,33)                 1.1022         estimate D2E/DX2                !
 ! R3    R(1,34)                 1.1138         estimate D2E/DX2                !
 ! R4    R(1,35)                 1.1293         estimate D2E/DX2                !
 ! R5    R(2,3)                  1.2061         estimate D2E/DX2                !
 ! R6    R(2,4)                  1.5773         estimate D2E/DX2                !
 ! R7    R(4,5)                  1.5815         estimate D2E/DX2                !
 ! R8    R(4,8)                  1.4804         estimate D2E/DX2                !
 ! R9    R(4,32)                 1.483          estimate D2E/DX2                !
 ! R10   R(5,6)                  1.4755         estimate D2E/DX2                !
 ! R11   R(5,7)                  1.2157         estimate D2E/DX2                !
 ! R12   R(6,36)                 1.1079         estimate D2E/DX2                !
 ! R13   R(6,37)                 1.1236         estimate D2E/DX2                !
 ! R14   R(6,38)                 1.1081         estimate D2E/DX2                !
 ! R15   R(8,9)                  1.3836         estimate D2E/DX2                !
 ! R16   R(9,10)                 1.4731         estimate D2E/DX2                !
 ! R17   R(9,20)                 1.3125         estimate D2E/DX2                !
 ! R18   R(10,11)                1.3657         estimate D2E/DX2                !
 ! R19   R(10,19)                1.3793         estimate D2E/DX2                !
 ! R20   R(11,12)                1.3811         estimate D2E/DX2                !
 ! R21   R(11,39)                1.0853         estimate D2E/DX2                !
 ! R22   R(12,13)                1.3756         estimate D2E/DX2                !
 ! R23   R(12,40)                1.0907         estimate D2E/DX2                !
 ! R24   R(13,14)                1.3907         estimate D2E/DX2                !
 ! R25   R(13,18)                1.3762         estimate D2E/DX2                !
 ! R26   R(14,15)                1.3789         estimate D2E/DX2                !
 ! R27   R(14,41)                1.0732         estimate D2E/DX2                !
 ! R28   R(15,16)                1.3782         estimate D2E/DX2                !
 ! R29   R(15,42)                1.0785         estimate D2E/DX2                !
 ! R30   R(16,17)                1.3777         estimate D2E/DX2                !
 ! R31   R(16,43)                1.0794         estimate D2E/DX2                !
 ! R32   R(17,18)                1.3946         estimate D2E/DX2                !
 ! R33   R(17,44)                1.085          estimate D2E/DX2                !
 ! R34   R(18,19)                1.3707         estimate D2E/DX2                !
 ! R35   R(19,45)                1.0949         estimate D2E/DX2                !
 ! R36   R(20,21)                1.4622         estimate D2E/DX2                !
 ! R37   R(20,46)                1.1011         estimate D2E/DX2                !
 ! R38   R(21,22)                1.462          estimate D2E/DX2                !
 ! R39   R(21,32)                1.2706         estimate D2E/DX2                !
 ! R40   R(22,23)                1.3689         estimate D2E/DX2                !
 ! R41   R(22,31)                1.381          estimate D2E/DX2                !
 ! R42   R(23,24)                1.3944         estimate D2E/DX2                !
 ! R43   R(23,47)                1.0805         estimate D2E/DX2                !
 ! R44   R(24,25)                1.3761         estimate D2E/DX2                !
 ! R45   R(24,48)                1.0785         estimate D2E/DX2                !
 ! R46   R(25,26)                1.3956         estimate D2E/DX2                !
 ! R47   R(25,30)                1.3755         estimate D2E/DX2                !
 ! R48   R(26,27)                1.3758         estimate D2E/DX2                !
 ! R49   R(26,49)                1.0859         estimate D2E/DX2                !
 ! R50   R(27,28)                1.3757         estimate D2E/DX2                !
 ! R51   R(27,50)                1.0954         estimate D2E/DX2                !
 ! R52   R(28,29)                1.3721         estimate D2E/DX2                !
 ! R53   R(28,51)                1.0966         estimate D2E/DX2                !
 ! R54   R(29,30)                1.3786         estimate D2E/DX2                !
 ! R55   R(29,52)                1.0794         estimate D2E/DX2                !
 ! R56   R(30,31)                1.3843         estimate D2E/DX2                !
 ! R57   R(31,53)                1.0844         estimate D2E/DX2                !
 ! A1    A(2,1,33)             113.1549         estimate D2E/DX2                !
 ! A2    A(2,1,34)             110.7831         estimate D2E/DX2                !
 ! A3    A(2,1,35)             110.0401         estimate D2E/DX2                !
 ! A4    A(33,1,34)            112.0195         estimate D2E/DX2                !
 ! A5    A(33,1,35)            105.4799         estimate D2E/DX2                !
 ! A6    A(34,1,35)            104.8896         estimate D2E/DX2                !
 ! A7    A(1,2,3)              121.4374         estimate D2E/DX2                !
 ! A8    A(1,2,4)              117.9555         estimate D2E/DX2                !
 ! A9    A(3,2,4)              120.607          estimate D2E/DX2                !
 ! A10   A(2,4,5)              110.1773         estimate D2E/DX2                !
 ! A11   A(2,4,8)              108.0785         estimate D2E/DX2                !
 ! A12   A(2,4,32)             106.03           estimate D2E/DX2                !
 ! A13   A(5,4,8)              107.2378         estimate D2E/DX2                !
 ! A14   A(5,4,32)             111.072          estimate D2E/DX2                !
 ! A15   A(8,4,32)             114.2001         estimate D2E/DX2                !
 ! A16   A(4,5,6)              119.3404         estimate D2E/DX2                !
 ! A17   A(4,5,7)              120.3563         estimate D2E/DX2                !
 ! A18   A(6,5,7)              120.3033         estimate D2E/DX2                !
 ! A19   A(5,6,36)             110.8695         estimate D2E/DX2                !
 ! A20   A(5,6,37)             111.3946         estimate D2E/DX2                !
 ! A21   A(5,6,38)             110.65           estimate D2E/DX2                !
 ! A22   A(36,6,37)            111.7374         estimate D2E/DX2                !
 ! A23   A(36,6,38)            106.6929         estimate D2E/DX2                !
 ! A24   A(37,6,38)            105.2535         estimate D2E/DX2                !
 ! A25   A(4,8,9)              120.1146         estimate D2E/DX2                !
 ! A26   A(8,9,10)             118.401          estimate D2E/DX2                !
 ! A27   A(8,9,20)             119.3207         estimate D2E/DX2                !
 ! A28   A(10,9,20)            122.2783         estimate D2E/DX2                !
 ! A29   A(9,10,11)            120.5207         estimate D2E/DX2                !
 ! A30   A(9,10,19)            118.5987         estimate D2E/DX2                !
 ! A31   A(11,10,19)           120.8807         estimate D2E/DX2                !
 ! A32   A(10,11,12)           119.7976         estimate D2E/DX2                !
 ! A33   A(10,11,39)           124.7759         estimate D2E/DX2                !
 ! A34   A(12,11,39)           115.4264         estimate D2E/DX2                !
 ! A35   A(11,12,13)           119.0387         estimate D2E/DX2                !
 ! A36   A(11,12,40)           119.2988         estimate D2E/DX2                !
 ! A37   A(13,12,40)           121.6625         estimate D2E/DX2                !
 ! A38   A(12,13,14)           116.8741         estimate D2E/DX2                !
 ! A39   A(12,13,18)           121.2872         estimate D2E/DX2                !
 ! A40   A(14,13,18)           121.8387         estimate D2E/DX2                !
 ! A41   A(13,14,15)           118.7442         estimate D2E/DX2                !
 ! A42   A(13,14,41)           119.0276         estimate D2E/DX2                !
 ! A43   A(15,14,41)           122.2282         estimate D2E/DX2                !
 ! A44   A(14,15,16)           119.7431         estimate D2E/DX2                !
 ! A45   A(14,15,42)           118.2079         estimate D2E/DX2                !
 ! A46   A(16,15,42)           122.049          estimate D2E/DX2                !
 ! A47   A(15,16,17)           121.5906         estimate D2E/DX2                !
 ! A48   A(15,16,43)           118.6819         estimate D2E/DX2                !
 ! A49   A(17,16,43)           119.7275         estimate D2E/DX2                !
 ! A50   A(16,17,18)           119.1831         estimate D2E/DX2                !
 ! A51   A(16,17,44)           123.2253         estimate D2E/DX2                !
 ! A52   A(18,17,44)           117.5916         estimate D2E/DX2                !
 ! A53   A(13,18,17)           118.9003         estimate D2E/DX2                !
 ! A54   A(13,18,19)           119.2308         estimate D2E/DX2                !
 ! A55   A(17,18,19)           121.8689         estimate D2E/DX2                !
 ! A56   A(10,19,18)           119.765          estimate D2E/DX2                !
 ! A57   A(10,19,45)           120.6051         estimate D2E/DX2                !
 ! A58   A(18,19,45)           119.6298         estimate D2E/DX2                !
 ! A59   A(9,20,21)            125.0015         estimate D2E/DX2                !
 ! A60   A(9,20,46)            121.0633         estimate D2E/DX2                !
 ! A61   A(21,20,46)           113.9352         estimate D2E/DX2                !
 ! A62   A(20,21,22)           123.3555         estimate D2E/DX2                !
 ! A63   A(20,21,32)           116.7128         estimate D2E/DX2                !
 ! A64   A(22,21,32)           119.9317         estimate D2E/DX2                !
 ! A65   A(21,22,23)           123.1797         estimate D2E/DX2                !
 ! A66   A(21,22,31)           119.9361         estimate D2E/DX2                !
 ! A67   A(23,22,31)           116.8843         estimate D2E/DX2                !
 ! A68   A(22,23,24)           121.9067         estimate D2E/DX2                !
 ! A69   A(22,23,47)           121.6263         estimate D2E/DX2                !
 ! A70   A(24,23,47)           116.4671         estimate D2E/DX2                !
 ! A71   A(23,24,25)           119.3795         estimate D2E/DX2                !
 ! A72   A(23,24,48)           121.8823         estimate D2E/DX2                !
 ! A73   A(25,24,48)           118.7381         estimate D2E/DX2                !
 ! A74   A(24,25,26)           121.58           estimate D2E/DX2                !
 ! A75   A(24,25,30)           120.3258         estimate D2E/DX2                !
 ! A76   A(26,25,30)           118.0942         estimate D2E/DX2                !
 ! A77   A(25,26,27)           122.6652         estimate D2E/DX2                !
 ! A78   A(25,26,49)           115.4578         estimate D2E/DX2                !
 ! A79   A(27,26,49)           121.877          estimate D2E/DX2                !
 ! A80   A(26,27,28)           117.8902         estimate D2E/DX2                !
 ! A81   A(26,27,50)           120.263          estimate D2E/DX2                !
 ! A82   A(28,27,50)           121.8467         estimate D2E/DX2                !
 ! A83   A(27,28,29)           120.3543         estimate D2E/DX2                !
 ! A84   A(27,28,51)           117.2463         estimate D2E/DX2                !
 ! A85   A(29,28,51)           122.3994         estimate D2E/DX2                !
 ! A86   A(28,29,30)           121.4427         estimate D2E/DX2                !
 ! A87   A(28,29,52)           118.8411         estimate D2E/DX2                !
 ! A88   A(30,29,52)           119.7162         estimate D2E/DX2                !
 ! A89   A(25,30,29)           119.5533         estimate D2E/DX2                !
 ! A90   A(25,30,31)           118.493          estimate D2E/DX2                !
 ! A91   A(29,30,31)           121.9536         estimate D2E/DX2                !
 ! A92   A(22,31,30)           123.0107         estimate D2E/DX2                !
 ! A93   A(22,31,53)           117.4498         estimate D2E/DX2                !
 ! A94   A(30,31,53)           119.5394         estimate D2E/DX2                !
 ! A95   A(4,32,21)            124.6502         estimate D2E/DX2                !
 ! D1    D(33,1,2,3)            12.9528         estimate D2E/DX2                !
 ! D2    D(33,1,2,4)          -167.0473         estimate D2E/DX2                !
 ! D3    D(34,1,2,3)          -113.807          estimate D2E/DX2                !
 ! D4    D(34,1,2,4)            66.1929         estimate D2E/DX2                !
 ! D5    D(35,1,2,3)           130.6624         estimate D2E/DX2                !
 ! D6    D(35,1,2,4)           -49.3377         estimate D2E/DX2                !
 ! D7    D(1,2,4,5)            171.27           estimate D2E/DX2                !
 ! D8    D(1,2,4,8)            -71.8536         estimate D2E/DX2                !
 ! D9    D(1,2,4,32)            50.9967         estimate D2E/DX2                !
 ! D10   D(3,2,4,5)             -8.7301         estimate D2E/DX2                !
 ! D11   D(3,2,4,8)            108.1463         estimate D2E/DX2                !
 ! D12   D(3,2,4,32)          -129.0034         estimate D2E/DX2                !
 ! D13   D(2,4,5,6)            -84.5829         estimate D2E/DX2                !
 ! D14   D(2,4,5,7)             95.4172         estimate D2E/DX2                !
 ! D15   D(8,4,5,6)            158.0187         estimate D2E/DX2                !
 ! D16   D(8,4,5,7)            -21.9812         estimate D2E/DX2                !
 ! D17   D(32,4,5,6)            32.6024         estimate D2E/DX2                !
 ! D18   D(32,4,5,7)          -147.3975         estimate D2E/DX2                !
 ! D19   D(2,4,8,9)            117.7228         estimate D2E/DX2                !
 ! D20   D(5,4,8,9)           -123.5143         estimate D2E/DX2                !
 ! D21   D(32,4,8,9)             0.0012         estimate D2E/DX2                !
 ! D22   D(2,4,32,21)         -118.8894         estimate D2E/DX2                !
 ! D23   D(5,4,32,21)          121.421          estimate D2E/DX2                !
 ! D24   D(8,4,32,21)           -0.0009         estimate D2E/DX2                !
 ! D25   D(4,5,6,36)           -73.7411         estimate D2E/DX2                !
 ! D26   D(4,5,6,37)            51.3628         estimate D2E/DX2                !
 ! D27   D(4,5,6,38)           168.0817         estimate D2E/DX2                !
 ! D28   D(7,5,6,36)           106.2588         estimate D2E/DX2                !
 ! D29   D(7,5,6,37)          -128.6373         estimate D2E/DX2                !
 ! D30   D(7,5,6,38)           -11.9184         estimate D2E/DX2                !
 ! D31   D(4,8,9,10)           179.9991         estimate D2E/DX2                !
 ! D32   D(4,8,9,20)            -0.001          estimate D2E/DX2                !
 ! D33   D(8,9,10,11)          179.9971         estimate D2E/DX2                !
 ! D34   D(8,9,10,19)           -0.0051         estimate D2E/DX2                !
 ! D35   D(20,9,10,11)          -0.0029         estimate D2E/DX2                !
 ! D36   D(20,9,10,19)         179.9949         estimate D2E/DX2                !
 ! D37   D(8,9,20,21)            0.0003         estimate D2E/DX2                !
 ! D38   D(8,9,20,46)         -179.9995         estimate D2E/DX2                !
 ! D39   D(10,9,20,21)        -179.9997         estimate D2E/DX2                !
 ! D40   D(10,9,20,46)           0.0004         estimate D2E/DX2                !
 ! D41   D(9,10,11,12)         179.9975         estimate D2E/DX2                !
 ! D42   D(9,10,11,39)          -0.0028         estimate D2E/DX2                !
 ! D43   D(19,10,11,12)         -0.0002         estimate D2E/DX2                !
 ! D44   D(19,10,11,39)        179.9994         estimate D2E/DX2                !
 ! D45   D(9,10,19,18)        -179.9975         estimate D2E/DX2                !
 ! D46   D(9,10,19,45)           0.0025         estimate D2E/DX2                !
 ! D47   D(11,10,19,18)          0.0003         estimate D2E/DX2                !
 ! D48   D(11,10,19,45)       -179.9997         estimate D2E/DX2                !
 ! D49   D(10,11,12,13)          0.0            estimate D2E/DX2                !
 ! D50   D(10,11,12,40)       -179.9999         estimate D2E/DX2                !
 ! D51   D(39,11,12,13)       -179.9996         estimate D2E/DX2                !
 ! D52   D(39,11,12,40)          0.0005         estimate D2E/DX2                !
 ! D53   D(11,12,13,14)       -179.9989         estimate D2E/DX2                !
 ! D54   D(11,12,13,18)          0.0            estimate D2E/DX2                !
 ! D55   D(40,12,13,14)          0.0009         estimate D2E/DX2                !
 ! D56   D(40,12,13,18)        179.9999         estimate D2E/DX2                !
 ! D57   D(12,13,14,15)        179.9989         estimate D2E/DX2                !
 ! D58   D(12,13,14,41)         -0.0012         estimate D2E/DX2                !
 ! D59   D(18,13,14,15)          0.0            estimate D2E/DX2                !
 ! D60   D(18,13,14,41)        179.9998         estimate D2E/DX2                !
 ! D61   D(12,13,18,17)       -179.9989         estimate D2E/DX2                !
 ! D62   D(12,13,18,19)          0.0001         estimate D2E/DX2                !
 ! D63   D(14,13,18,17)          0.0001         estimate D2E/DX2                !
 ! D64   D(14,13,18,19)        179.999          estimate D2E/DX2                !
 ! D65   D(13,14,15,16)          0.0            estimate D2E/DX2                !
 ! D66   D(13,14,15,42)       -179.9997         estimate D2E/DX2                !
 ! D67   D(41,14,15,16)       -179.9999         estimate D2E/DX2                !
 ! D68   D(41,14,15,42)          0.0004         estimate D2E/DX2                !
 ! D69   D(14,15,16,17)          0.0            estimate D2E/DX2                !
 ! D70   D(14,15,16,43)       -180.0            estimate D2E/DX2                !
 ! D71   D(42,15,16,17)        179.9997         estimate D2E/DX2                !
 ! D72   D(42,15,16,43)         -0.0003         estimate D2E/DX2                !
 ! D73   D(15,16,17,18)          0.0001         estimate D2E/DX2                !
 ! D74   D(15,16,17,44)        179.9999         estimate D2E/DX2                !
 ! D75   D(43,16,17,18)       -180.0            estimate D2E/DX2                !
 ! D76   D(43,16,17,44)         -0.0002         estimate D2E/DX2                !
 ! D77   D(16,17,18,13)         -0.0001         estimate D2E/DX2                !
 ! D78   D(16,17,18,19)       -179.999          estimate D2E/DX2                !
 ! D79   D(44,17,18,13)       -179.9999         estimate D2E/DX2                !
 ! D80   D(44,17,18,19)          0.0012         estimate D2E/DX2                !
 ! D81   D(13,18,19,10)         -0.0002         estimate D2E/DX2                !
 ! D82   D(13,18,19,45)        179.9998         estimate D2E/DX2                !
 ! D83   D(17,18,19,10)        179.9987         estimate D2E/DX2                !
 ! D84   D(17,18,19,45)         -0.0013         estimate D2E/DX2                !
 ! D85   D(9,20,21,22)        -179.9999         estimate D2E/DX2                !
 ! D86   D(9,20,21,32)           0.0001         estimate D2E/DX2                !
 ! D87   D(46,20,21,22)         -0.0001         estimate D2E/DX2                !
 ! D88   D(46,20,21,32)        179.9999         estimate D2E/DX2                !
 ! D89   D(20,21,22,23)         -0.0053         estimate D2E/DX2                !
 ! D90   D(20,21,22,31)        179.9947         estimate D2E/DX2                !
 ! D91   D(32,21,22,23)        179.9948         estimate D2E/DX2                !
 ! D92   D(32,21,22,31)         -0.0053         estimate D2E/DX2                !
 ! D93   D(20,21,32,4)           0.0003         estimate D2E/DX2                !
 ! D94   D(22,21,32,4)        -179.9997         estimate D2E/DX2                !
 ! D95   D(21,22,23,24)       -180.0            estimate D2E/DX2                !
 ! D96   D(21,22,23,47)          0.0001         estimate D2E/DX2                !
 ! D97   D(31,22,23,24)          0.0001         estimate D2E/DX2                !
 ! D98   D(31,22,23,47)       -179.9999         estimate D2E/DX2                !
 ! D99   D(21,22,31,30)        179.9999         estimate D2E/DX2                !
 ! D100  D(21,22,31,53)          0.0001         estimate D2E/DX2                !
 ! D101  D(23,22,31,30)         -0.0001         estimate D2E/DX2                !
 ! D102  D(23,22,31,53)       -179.9999         estimate D2E/DX2                !
 ! D103  D(22,23,24,25)          0.0            estimate D2E/DX2                !
 ! D104  D(22,23,24,48)        179.9997         estimate D2E/DX2                !
 ! D105  D(47,23,24,25)        180.0            estimate D2E/DX2                !
 ! D106  D(47,23,24,48)         -0.0003         estimate D2E/DX2                !
 ! D107  D(23,24,25,26)       -179.9997         estimate D2E/DX2                !
 ! D108  D(23,24,25,30)         -0.0001         estimate D2E/DX2                !
 ! D109  D(48,24,25,26)          0.0006         estimate D2E/DX2                !
 ! D110  D(48,24,25,30)       -179.9998         estimate D2E/DX2                !
 ! D111  D(24,25,26,27)        179.9995         estimate D2E/DX2                !
 ! D112  D(24,25,26,49)         -0.0012         estimate D2E/DX2                !
 ! D113  D(30,25,26,27)         -0.0001         estimate D2E/DX2                !
 ! D114  D(30,25,26,49)        179.9992         estimate D2E/DX2                !
 ! D115  D(24,25,30,29)       -179.9995         estimate D2E/DX2                !
 ! D116  D(24,25,30,31)          0.0001         estimate D2E/DX2                !
 ! D117  D(26,25,30,29)          0.0001         estimate D2E/DX2                !
 ! D118  D(26,25,30,31)        179.9997         estimate D2E/DX2                !
 ! D119  D(25,26,27,28)          0.0            estimate D2E/DX2                !
 ! D120  D(25,26,27,50)       -179.9997         estimate D2E/DX2                !
 ! D121  D(49,26,27,28)       -179.9992         estimate D2E/DX2                !
 ! D122  D(49,26,27,50)          0.001          estimate D2E/DX2                !
 ! D123  D(26,27,28,29)          0.0            estimate D2E/DX2                !
 ! D124  D(26,27,28,51)       -179.9999         estimate D2E/DX2                !
 ! D125  D(50,27,28,29)        179.9998         estimate D2E/DX2                !
 ! D126  D(50,27,28,51)         -0.0002         estimate D2E/DX2                !
 ! D127  D(27,28,29,30)          0.0            estimate D2E/DX2                !
 ! D128  D(27,28,29,52)       -179.9998         estimate D2E/DX2                !
 ! D129  D(51,28,29,30)        179.9999         estimate D2E/DX2                !
 ! D130  D(51,28,29,52)          0.0001         estimate D2E/DX2                !
 ! D131  D(28,29,30,25)         -0.0001         estimate D2E/DX2                !
 ! D132  D(28,29,30,31)       -179.9996         estimate D2E/DX2                !
 ! D133  D(52,29,30,25)        179.9997         estimate D2E/DX2                !
 ! D134  D(52,29,30,31)          0.0002         estimate D2E/DX2                !
 ! D135  D(25,30,31,22)          0.0            estimate D2E/DX2                !
 ! D136  D(25,30,31,53)        179.9998         estimate D2E/DX2                !
 ! D137  D(29,30,31,22)        179.9996         estimate D2E/DX2                !
 ! D138  D(29,30,31,53)         -0.0006         estimate D2E/DX2                !
 --------------------------------------------------------------------------------
 Trust Radius=3.00D-01 FncErr=1.00D-07 GrdErr=1.00D-06 EigMax=2.50D+02 EigMin=1.00D-04
 Number of steps in this run=    300 maximum allowed number of steps=    318.
 GradGradGradGradGradGradGradGradGradGradGradGradGradGradGradGradGradGrad

 Leave Link  103 at Tue Dec  5 07:30:08 2023, MaxMem=  2147483648 cpu:               2.7 elap:               0.2
 (Enter /opt/gaussian/g16-c01/g16/l202.exe)
 Stoichiometry    C27H21BO4
 Framework group  C1[X(C27H21BO4)]
 Deg. of freedom   153
 Full point group                 C1      NOp   1
 Largest Abelian subgroup         C1      NOp   1
 Largest concise Abelian subgroup C1      NOp   1
                         Standard orientation:                         
 ---------------------------------------------------------------------
 Center     Atomic      Atomic             Coordinates (Angstroms)
 Number     Number       Type             X           Y           Z
 ---------------------------------------------------------------------
      1          6           0       -0.291674    2.262051    2.612454
      2          6           0       -0.067575    2.999230    1.348142
      3          8           0        0.059376    4.198538    1.333250
      4          5           0        0.001375    2.167669    0.009588
      5          6           0        0.019997    3.140864   -1.236833
      6          6           0       -1.255834    3.648054   -1.777189
      7          8           0        1.074788    3.468148   -1.745094
      8          8           0        1.277762    1.417854   -0.000183
      9          6           0        1.270043    0.034386   -0.018670
     10          6           0        2.561893   -0.673426   -0.027897
     11          6           0        2.604792   -2.038343   -0.046068
     12          6           0        3.824247   -2.686618   -0.054565
     13          6           0        4.978370   -1.938228   -0.044471
     14          6           0        6.180778   -2.636923   -0.053664
     15          6           0        7.361536   -1.924886   -0.044074
     16          6           0        7.329052   -0.547173   -0.025731
     17          6           0        6.138810    0.146618   -0.016603
     18          6           0        4.938107   -0.562757   -0.026158
     19          6           0        3.722850    0.071275   -0.017848
     20          6           0        0.122156   -0.601866   -0.027375
     21          6           0       -1.192077    0.039002   -0.019051
     22          6           0       -2.449838   -0.706162   -0.029229
     23          6           0       -2.510326   -2.073602   -0.047608
     24          6           0       -3.725436   -2.757494   -0.056958
     25          6           0       -4.901961   -2.043726   -0.047525
     26          6           0       -6.143548   -2.681033   -0.056246
     27          6           0       -7.333119   -1.989824   -0.047108
     28          6           0       -7.278606   -0.615341   -0.028631
     29          6           0       -6.068041    0.030528   -0.019800
     30          6           0       -4.879862   -0.668574   -0.029045
     31          6           0       -3.652825   -0.027907   -0.020274
     32          8           0       -1.207941    1.309424   -0.002085
     33          1           0       -0.551230    2.920087    3.457649
     34          1           0        0.576838    1.605046    2.846140
     35          1           0       -1.166664    1.557142    2.499527
     36          1           0       -1.793822    2.853275   -2.330587
     37          1           0       -1.893859    4.096943   -0.968576
     38          1           0       -1.075721    4.471040   -2.497034
     39          1           0        1.733201   -2.685018   -0.054769
     40          1           0        3.849015   -3.776950   -0.069083
     41          1           0        6.159529   -3.709802   -0.067951
     42          1           0        8.288916   -2.475440   -0.051325
     43          1           0        8.263552   -0.006981   -0.018453
     44          1           0        6.082303    1.230097   -0.002178
     45          1           0        3.683194    1.165358   -0.003279
     46          1           0        0.082533   -1.702134   -0.042076
     47          1           0       -1.616253   -2.680222   -0.055639
     48          1           0       -3.772635   -3.834871   -0.071444
     49          1           0       -6.111033   -3.766388   -0.070840
     50          1           0       -8.285796   -2.530438   -0.054489
     51          1           0       -8.232907   -0.075092   -0.021490
     52          1           0       -6.053765    1.109779   -0.005292
     53          1           0       -3.615604    1.055748   -0.005711
 ---------------------------------------------------------------------
 Rotational constants (GHZ):           0.2371736           0.0681052           0.0561661
 Leave Link  202 at Tue Dec  5 07:30:09 2023, MaxMem=  2147483648 cpu:               3.2 elap:               0.2
 (Enter /opt/gaussian/g16-c01/g16/l301.exe)
 Standard basis: 6-311++G(d,p) (5D, 7F)
 Ernie: Thresh=  0.10000D-02 Tol=  0.10000D-05 Strict=F.
 There are   883 symmetry adapted cartesian basis functions of A   symmetry.
 There are   851 symmetry adapted basis functions of A   symmetry.
   851 basis functions,  1341 primitive gaussians,   883 cartesian basis functions
   110 alpha electrons      110 beta electrons
       nuclear repulsion energy      2896.2594897885 Hartrees.
 IExCor= 7252 DFT=T Ex+Corr=MN15 ExCW=0 ScaHFX=  0.440000
 ScaDFX=  1.000000  1.000000  1.000000  1.000000 ScalE2=  1.000000  1.000000
 IRadAn=      5 IRanWt=     -1 IRanGd=            0 ICorTp=0 IEmpDi=  4
 NAtoms=   53 NActive=   53 NUniq=   53 SFac= 1.00D+00 NAtFMM=   60 NAOKFM=F Big=F
 Integral buffers will be    131072 words long.
 Raffenetti 2 integral format.
 Two-electron integral symmetry is turned on.
 Leave Link  301 at Tue Dec  5 07:30:09 2023, MaxMem=  2147483648 cpu:               4.1 elap:               0.2
 (Enter /opt/gaussian/g16-c01/g16/l302.exe)
 NPDir=0 NMtPBC=     1 NCelOv=     1 NCel=       1 NClECP=     1 NCelD=      1
         NCelK=      1 NCelE2=     1 NClLst=     1 CellRange=     0.0.
 One-electron integrals computed using PRISM.
 One-electron integral symmetry used in STVInt
 NBasis=   851 RedAO= T EigKep=  1.05D-06  NBF=   851
 NBsUse=   836 1.00D-06 EigRej=  9.49D-07 NBFU=   836
 Precomputing XC quadrature grid using
 IXCGrd= 4 IRadAn=           5 IRanWt=          -1 IRanGd=           0 AccXCQ= 0.00D+00.
 Generated NRdTot=       0 NPtTot=           0 NUsed=           0 NTot=          32
 NSgBfM=   864   864   864   864   864 MxSgAt=    53 MxSgA2=    53.
 Leave Link  302 at Tue Dec  5 07:30:11 2023, MaxMem=  2147483648 cpu:              48.5 elap:               2.0
 (Enter /opt/gaussian/g16-c01/g16/l303.exe)
 DipDrv:  MaxL=1.
 Leave Link  303 at Tue Dec  5 07:30:12 2023, MaxMem=  2147483648 cpu:               6.5 elap:               0.4
 (Enter /opt/gaussian/g16-c01/g16/l401.exe)
 ExpMin= 3.15D-02 ExpMax= 8.59D+03 ExpMxC= 1.30D+03 IAcc=3 IRadAn=         5 AccDes= 0.00D+00
 Harris functional with IExCor= 1009 and IRadAn=       5 diagonalized for initial guess.
 HarFok:  IExCor= 1009 AccDes= 0.00D+00 IRadAn=         5 IDoV= 1 UseB2=F ITyADJ=14
 ICtDFT=  3500011 ScaDFX=  1.000000  1.000000  1.000000  1.000000
 FoFCou: FMM=F IPFlag=           0 FMFlag=      100000 FMFlg1=           0
         NFxFlg=           0 DoJE=T BraDBF=F KetDBF=T FulRan=T
         wScrn=  0.000000 ICntrl=       500 IOpCl=  0 I1Cent=   200000004 NGrid=           0
         NMat0=    1 NMatS0=      1 NMatT0=    0 NMatD0=    1 NMtDS0=    0 NMtDT0=    0
 Petite list used in FoFCou.
 Harris En= -1366.48503371666    
 JPrj=0 DoOrth=F DoCkMO=F.
 Leave Link  401 at Tue Dec  5 07:30:16 2023, MaxMem=  2147483648 cpu:             108.5 elap:               4.3
 (Enter /opt/gaussian/g16-c01/g16/l502.exe)
 Integral symmetry usage will be decided dynamically.
 Closed shell SCF:
 Using DIIS extrapolation, IDIIS=  1040.
 NGot=  2147483648 LenX=  2145891838 LenY=  2145111266
 Requested convergence on RMS density matrix=1.00D-08 within 128 cycles.
 Requested convergence on MAX density matrix=1.00D-06.
 Requested convergence on             energy=1.00D-06.
 No special actions if energy rises.
 Fock matrices will be formed incrementally for  20 cycles.

 Cycle   1  Pass 1  IDiag  1:
 FoFJK:  IHMeth= 1 ICntrl=       0 DoSepK=F KAlg= 0 I1Cent=           0 FoldK=F
 IRaf= 730000000 NMat=       1 IRICut=       1 DoRegI=T DoRafI=F ISym2E= 0 IDoP0=0 IntGTp=1.
 FoFCou: FMM=F IPFlag=           0 FMFlag=      100000 FMFlg1=           0
         NFxFlg=           0 DoJE=F BraDBF=F KetDBF=F FulRan=T
         wScrn=  0.000000 ICntrl=         0 IOpCl=  0 I1Cent=           0 NGrid=           0
         NMat0=    1 NMatS0=      1 NMatT0=    0 NMatD0=    1 NMtDS0=    0 NMtDT0=    0
 Symmetry not used in FoFCou.
 E= -1365.31686006010    
 DIIS: error= 2.43D-02 at cycle   1 NSaved=   1.
 NSaved= 1 IEnMin= 1 EnMin= -1365.31686006010     IErMin= 1 ErrMin= 2.43D-02
 ErrMax= 2.43D-02  0.00D+00 EMaxC= 1.00D-01 BMatC= 8.27D-01 BMatP= 8.27D-01
 IDIUse=3 WtCom= 7.57D-01 WtEn= 2.43D-01
 Coeff-Com:  0.100D+01
 Coeff-En:   0.100D+01
 Coeff:      0.100D+01
 Gap=     0.074 Goal=   None    Shift=    0.000
 GapD=    0.074 DampG=0.500 DampE=0.500 DampFc=0.2500 IDamp=-1.
 Damping current iteration by 2.50D-01
 RMSDP=1.21D-02 MaxDP=8.17D-01              OVMax= 6.22D-01

 Cycle   2  Pass 1  IDiag  1:
 RMSU=  3.02D-03    CP:  1.01D+00
 E= -1365.53425696816     Delta-E=       -0.217396908052 Rises=F Damp=T
 DIIS: error= 1.48D-02 at cycle   2 NSaved=   2.
 NSaved= 2 IEnMin= 2 EnMin= -1365.53425696816     IErMin= 2 ErrMin= 1.48D-02
 ErrMax= 1.48D-02  0.00D+00 EMaxC= 1.00D-01 BMatC= 2.78D-01 BMatP= 8.27D-01
 IDIUse=3 WtCom= 8.52D-01 WtEn= 1.48D-01
 Coeff-Com: -0.852D+00 0.185D+01
 Coeff-En:   0.000D+00 0.100D+01
 Coeff:     -0.726D+00 0.173D+01
 Gap=     0.055 Goal=   None    Shift=    0.000
 RMSDP=8.89D-03 MaxDP=1.02D+00 DE=-2.17D-01 OVMax= 4.28D-01

 Cycle   3  Pass 1  IDiag  1:
 RMSU=  4.44D-03    CP:  7.86D-01  1.43D+00
 E= -1365.83109907676     Delta-E=       -0.296842108602 Rises=F Damp=F
 DIIS: error= 1.33D-02 at cycle   3 NSaved=   3.
 NSaved= 3 IEnMin= 3 EnMin= -1365.83109907676     IErMin= 3 ErrMin= 1.33D-02
 ErrMax= 1.33D-02  0.00D+00 EMaxC= 1.00D-01 BMatC= 2.00D-01 BMatP= 2.78D-01
 IDIUse=3 WtCom= 8.67D-01 WtEn= 1.33D-01
 Coeff-Com: -0.637D+00 0.118D+01 0.461D+00
 Coeff-En:   0.000D+00 0.000D+00 0.100D+01
 Coeff:     -0.552D+00 0.102D+01 0.533D+00
 Gap=     0.155 Goal=   None    Shift=    0.000
 RMSDP=3.50D-03 MaxDP=2.90D-01 DE=-2.97D-01 OVMax= 1.36D-01

 Cycle   4  Pass 1  IDiag  1:
 RMSU=  3.16D-03    CP:  7.81D-01  1.66D+00  7.04D-01
 E= -1365.99586069349     Delta-E=       -0.164761616735 Rises=F Damp=F
 DIIS: error= 3.28D-03 at cycle   4 NSaved=   4.
 NSaved= 4 IEnMin= 4 EnMin= -1365.99586069349     IErMin= 4 ErrMin= 3.28D-03
 ErrMax= 3.28D-03  0.00D+00 EMaxC= 1.00D-01 BMatC= 2.09D-02 BMatP= 2.00D-01
 IDIUse=3 WtCom= 9.67D-01 WtEn= 3.28D-02
 Coeff-Com: -0.210D+00 0.352D+00 0.267D+00 0.591D+00
 Coeff-En:   0.000D+00 0.000D+00 0.169D-01 0.983D+00
 Coeff:     -0.203D+00 0.340D+00 0.259D+00 0.604D+00
 Gap=     0.118 Goal=   None    Shift=    0.000
 RMSDP=1.16D-03 MaxDP=1.20D-01 DE=-1.65D-01 OVMax= 3.72D-02

 Cycle   5  Pass 1  IDiag  1:
 RMSU=  9.11D-04    CP:  7.70D-01  1.61D+00  7.09D-01  8.16D-01
 E= -1366.01013153427     Delta-E=       -0.014270840781 Rises=F Damp=F
 DIIS: error= 1.60D-03 at cycle   5 NSaved=   5.
 NSaved= 5 IEnMin= 5 EnMin= -1366.01013153427     IErMin= 5 ErrMin= 1.60D-03
 ErrMax= 1.60D-03  0.00D+00 EMaxC= 1.00D-01 BMatC= 3.38D-03 BMatP= 2.09D-02
 IDIUse=3 WtCom= 9.84D-01 WtEn= 1.60D-02
 Coeff-Com: -0.740D-01 0.109D+00 0.721D-01 0.319D+00 0.574D+00
 Coeff-En:   0.000D+00 0.000D+00 0.000D+00 0.117D+00 0.883D+00
 Coeff:     -0.728D-01 0.107D+00 0.709D-01 0.316D+00 0.579D+00
 Gap=     0.121 Goal=   None    Shift=    0.000
 RMSDP=4.16D-04 MaxDP=4.23D-02 DE=-1.43D-02 OVMax= 2.03D-02

 Cycle   6  Pass 1  IDiag  1:
 RMSU=  2.95D-04    CP:  7.75D-01  1.67D+00  7.13D-01  8.04D-01  8.04D-01
 E= -1366.01287484242     Delta-E=       -0.002743308143 Rises=F Damp=F
 DIIS: error= 7.22D-04 at cycle   6 NSaved=   6.
 NSaved= 6 IEnMin= 6 EnMin= -1366.01287484242     IErMin= 6 ErrMin= 7.22D-04
 ErrMax= 7.22D-04  0.00D+00 EMaxC= 1.00D-01 BMatC= 3.06D-04 BMatP= 3.38D-03
 IDIUse=3 WtCom= 9.93D-01 WtEn= 7.22D-03
 Coeff-Com: -0.248D-01 0.335D-01 0.387D-02 0.849D-01 0.300D+00 0.603D+00
 Coeff-En:   0.000D+00 0.000D+00 0.000D+00 0.000D+00 0.000D+00 0.100D+01
 Coeff:     -0.247D-01 0.333D-01 0.384D-02 0.842D-01 0.298D+00 0.606D+00
 Gap=     0.122 Goal=   None    Shift=    0.000
 RMSDP=1.72D-04 MaxDP=1.80D-02 DE=-2.74D-03 OVMax= 7.94D-03

 Cycle   7  Pass 1  IDiag  1:
 RMSU=  9.81D-05    CP:  7.78D-01  1.67D+00  7.09D-01  8.12D-01  8.83D-01
                    CP:  8.70D-01
 E= -1366.01319630829     Delta-E=       -0.000321465872 Rises=F Damp=F
 DIIS: error= 1.70D-04 at cycle   7 NSaved=   7.
 NSaved= 7 IEnMin= 7 EnMin= -1366.01319630829     IErMin= 7 ErrMin= 1.70D-04
 ErrMax= 1.70D-04  0.00D+00 EMaxC= 1.00D-01 BMatC= 5.07D-05 BMatP= 3.06D-04
 IDIUse=3 WtCom= 9.98D-01 WtEn= 1.70D-03
 Coeff-Com:  0.170D-02-0.455D-02-0.176D-01-0.252D-01 0.652D-01 0.327D+00
 Coeff-Com:  0.653D+00
 Coeff-En:   0.000D+00 0.000D+00 0.000D+00 0.000D+00 0.000D+00 0.000D+00
 Coeff-En:   0.100D+01
 Coeff:      0.169D-02-0.454D-02-0.176D-01-0.252D-01 0.651D-01 0.327D+00
 Coeff:      0.654D+00
 Gap=     0.122 Goal=   None    Shift=    0.000
 RMSDP=7.93D-05 MaxDP=6.51D-03 DE=-3.21D-04 OVMax= 8.01D-03

 Cycle   8  Pass 1  IDiag  1:
 RMSU=  4.69D-05    CP:  7.79D-01  1.67D+00  7.06D-01  8.15D-01  9.13D-01
                    CP:  9.53D-01  1.15D+00
 E= -1366.01327506300     Delta-E=       -0.000078754707 Rises=F Damp=F
 DIIS: error= 8.57D-05 at cycle   8 NSaved=   8.
 NSaved= 8 IEnMin= 8 EnMin= -1366.01327506300     IErMin= 8 ErrMin= 8.57D-05
 ErrMax= 8.57D-05  0.00D+00 EMaxC= 1.00D-01 BMatC= 5.22D-06 BMatP= 5.07D-05
 IDIUse=1 WtCom= 1.00D+00 WtEn= 0.00D+00
 Coeff-Com:  0.225D-02-0.349D-02-0.617D-02-0.208D-01-0.961D-02 0.182D-01
 Coeff-Com:  0.251D+00 0.768D+00
 Coeff:      0.225D-02-0.349D-02-0.617D-02-0.208D-01-0.961D-02 0.182D-01
 Coeff:      0.251D+00 0.768D+00
 Gap=     0.122 Goal=   None    Shift=    0.000
 RMSDP=2.69D-05 MaxDP=1.60D-03 DE=-7.88D-05 OVMax= 5.04D-03

 Cycle   9  Pass 1  IDiag  1:
 RMSU=  1.98D-05    CP:  7.79D-01  1.67D+00  7.06D-01  8.15D-01  9.27D-01
                    CP:  9.61D-01  1.25D+00  9.50D-01
 E= -1366.01329043046     Delta-E=       -0.000015367461 Rises=F Damp=F
 DIIS: error= 4.28D-05 at cycle   9 NSaved=   9.
 NSaved= 9 IEnMin= 9 EnMin= -1366.01329043046     IErMin= 9 ErrMin= 4.28D-05
 ErrMax= 4.28D-05  0.00D+00 EMaxC= 1.00D-01 BMatC= 9.62D-07 BMatP= 5.22D-06
 IDIUse=1 WtCom= 1.00D+00 WtEn= 0.00D+00
 Coeff-Com:  0.813D-03-0.103D-02-0.377D-03-0.563D-02-0.102D-01-0.445D-01
 Coeff-Com:  0.976D-02 0.305D+00 0.746D+00
 Coeff:      0.813D-03-0.103D-02-0.377D-03-0.563D-02-0.102D-01-0.445D-01
 Coeff:      0.976D-02 0.305D+00 0.746D+00
 Gap=     0.122 Goal=   None    Shift=    0.000
 RMSDP=1.30D-05 MaxDP=7.08D-04 DE=-1.54D-05 OVMax= 2.74D-03

 Cycle  10  Pass 1  IDiag  1:
 RMSU=  7.75D-06    CP:  7.79D-01  1.67D+00  7.05D-01  8.14D-01  9.32D-01
                    CP:  9.60D-01  1.28D+00  1.04D+00  1.31D+00
 E= -1366.01329415688     Delta-E=       -0.000003726427 Rises=F Damp=F
 DIIS: error= 2.04D-05 at cycle  10 NSaved=  10.
 NSaved=10 IEnMin=10 EnMin= -1366.01329415688     IErMin=10 ErrMin= 2.04D-05
 ErrMax= 2.04D-05  0.00D+00 EMaxC= 1.00D-01 BMatC= 2.26D-07 BMatP= 9.62D-07
 IDIUse=1 WtCom= 1.00D+00 WtEn= 0.00D+00
 Coeff-Com: -0.727D-04 0.207D-03 0.105D-02 0.185D-02-0.110D-02-0.270D-01
 Coeff-Com: -0.513D-01-0.487D-01 0.329D+00 0.796D+00
 Coeff:     -0.727D-04 0.207D-03 0.105D-02 0.185D-02-0.110D-02-0.270D-01
 Coeff:     -0.513D-01-0.487D-01 0.329D+00 0.796D+00
 Gap=     0.122 Goal=   None    Shift=    0.000
 RMSDP=7.62D-06 MaxDP=5.61D-04 DE=-3.73D-06 OVMax= 1.70D-03

 Cycle  11  Pass 1  IDiag  1:
 RMSU=  4.12D-06    CP:  7.79D-01  1.67D+00  7.05D-01  8.14D-01  9.35D-01
                    CP:  9.55D-01  1.32D+00  1.07D+00  1.48D+00  1.09D+00
 E= -1366.01329513219     Delta-E=       -0.000000975308 Rises=F Damp=F
 DIIS: error= 7.47D-06 at cycle  11 NSaved=  11.
 NSaved=11 IEnMin=11 EnMin= -1366.01329513219     IErMin=11 ErrMin= 7.47D-06
 ErrMax= 7.47D-06  0.00D+00 EMaxC= 1.00D-01 BMatC= 7.29D-08 BMatP= 2.26D-07
 IDIUse=1 WtCom= 1.00D+00 WtEn= 0.00D+00
 Coeff-Com: -0.181D-03 0.295D-03 0.596D-03 0.188D-02 0.144D-02-0.893D-02
 Coeff-Com: -0.286D-01-0.823D-01 0.543D-01 0.453D+00 0.609D+00
 Coeff:     -0.181D-03 0.295D-03 0.596D-03 0.188D-02 0.144D-02-0.893D-02
 Coeff:     -0.286D-01-0.823D-01 0.543D-01 0.453D+00 0.609D+00
 Gap=     0.122 Goal=   None    Shift=    0.000
 RMSDP=3.74D-06 MaxDP=2.71D-04 DE=-9.75D-07 OVMax= 5.60D-04

 Cycle  12  Pass 1  IDiag  1:
 RMSU=  2.09D-06    CP:  7.79D-01  1.67D+00  7.05D-01  8.14D-01  9.36D-01
                    CP:  9.54D-01  1.33D+00  1.08D+00  1.59D+00  1.28D+00
                    CP:  1.07D+00
 E= -1366.01329528685     Delta-E=       -0.000000154654 Rises=F Damp=F
 DIIS: error= 2.97D-06 at cycle  12 NSaved=  12.
 NSaved=12 IEnMin=12 EnMin= -1366.01329528685     IErMin=12 ErrMin= 2.97D-06
 ErrMax= 2.97D-06  0.00D+00 EMaxC= 1.00D-01 BMatC= 9.76D-09 BMatP= 7.29D-08
 IDIUse=1 WtCom= 1.00D+00 WtEn= 0.00D+00
 Coeff-Com: -0.331D-04 0.344D-04-0.843D-04 0.884D-04 0.834D-03 0.214D-02
 Coeff-Com:  0.464D-02-0.190D-01-0.616D-01-0.170D-01 0.267D+00 0.823D+00
 Coeff:     -0.331D-04 0.344D-04-0.843D-04 0.884D-04 0.834D-03 0.214D-02
 Coeff:      0.464D-02-0.190D-01-0.616D-01-0.170D-01 0.267D+00 0.823D+00
 Gap=     0.122 Goal=   None    Shift=    0.000
 RMSDP=1.58D-06 MaxDP=1.03D-04 DE=-1.55D-07 OVMax= 2.57D-04

 Cycle  13  Pass 1  IDiag  1:
 RMSU=  7.66D-07    CP:  7.79D-01  1.67D+00  7.05D-01  8.14D-01  9.37D-01
                    CP:  9.54D-01  1.33D+00  1.08D+00  1.63D+00  1.37D+00
                    CP:  1.20D+00  1.12D+00
 E= -1366.01329531503     Delta-E=       -0.000000028189 Rises=F Damp=F
 DIIS: error= 1.19D-06 at cycle  13 NSaved=  13.
 NSaved=13 IEnMin=13 EnMin= -1366.01329531503     IErMin=13 ErrMin= 1.19D-06
 ErrMax= 1.19D-06  0.00D+00 EMaxC= 1.00D-01 BMatC= 2.21D-09 BMatP= 9.76D-09
 IDIUse=1 WtCom= 1.00D+00 WtEn= 0.00D+00
 Coeff-Com: -0.587D-06-0.871D-05-0.975D-04-0.137D-03 0.321D-03 0.201D-02
 Coeff-Com:  0.599D-02-0.993D-03-0.382D-01-0.629D-01 0.483D-01 0.411D+00
 Coeff-Com:  0.635D+00
 Coeff:     -0.587D-06-0.871D-05-0.975D-04-0.137D-03 0.321D-03 0.201D-02
 Coeff:      0.599D-02-0.993D-03-0.382D-01-0.629D-01 0.483D-01 0.411D+00
 Coeff:      0.635D+00
 Gap=     0.122 Goal=   None    Shift=    0.000
 RMSDP=6.22D-07 MaxDP=4.53D-05 DE=-2.82D-08 OVMax= 5.96D-05

 Cycle  14  Pass 1  IDiag  1:
 RMSU=  2.62D-07    CP:  7.79D-01  1.67D+00  7.05D-01  8.14D-01  9.37D-01
                    CP:  9.54D-01  1.33D+00  1.08D+00  1.64D+00  1.40D+00
                    CP:  1.26D+00  1.25D+00  9.35D-01
 E= -1366.01329531855     Delta-E=       -0.000000003520 Rises=F Damp=F
 DIIS: error= 4.10D-07 at cycle  14 NSaved=  14.
 NSaved=14 IEnMin=14 EnMin= -1366.01329531855     IErMin=14 ErrMin= 4.10D-07
 ErrMax= 4.10D-07  0.00D+00 EMaxC= 1.00D-01 BMatC= 2.94D-10 BMatP= 2.21D-09
 IDIUse=1 WtCom= 1.00D+00 WtEn= 0.00D+00
 Coeff-Com:  0.711D-05-0.116D-04-0.148D-04-0.531D-04-0.899D-05 0.300D-03
 Coeff-Com:  0.165D-02 0.297D-02-0.247D-02-0.200D-01-0.374D-01 0.304D-02
 Coeff-Com:  0.270D+00 0.782D+00
 Coeff:      0.711D-05-0.116D-04-0.148D-04-0.531D-04-0.899D-05 0.300D-03
 Coeff:      0.165D-02 0.297D-02-0.247D-02-0.200D-01-0.374D-01 0.304D-02
 Coeff:      0.270D+00 0.782D+00
 Gap=     0.122 Goal=   None    Shift=    0.000
 RMSDP=2.10D-07 MaxDP=1.11D-05 DE=-3.52D-09 OVMax= 2.47D-05

 Cycle  15  Pass 1  IDiag  1:
 RMSU=  1.28D-07    CP:  7.79D-01  1.67D+00  7.05D-01  8.14D-01  9.37D-01
                    CP:  9.54D-01  1.33D+00  1.08D+00  1.64D+00  1.41D+00
                    CP:  1.28D+00  1.28D+00  1.04D+00  1.12D+00
 E= -1366.01329531950     Delta-E=       -0.000000000948 Rises=F Damp=F
 DIIS: error= 2.06D-07 at cycle  15 NSaved=  15.
 NSaved=15 IEnMin=15 EnMin= -1366.01329531950     IErMin=15 ErrMin= 2.06D-07
 ErrMax= 2.06D-07  0.00D+00 EMaxC= 1.00D-01 BMatC= 7.35D-11 BMatP= 2.94D-10
 IDIUse=1 WtCom= 1.00D+00 WtEn= 0.00D+00
 Coeff-Com:  0.166D-06 0.890D-06 0.997D-05 0.282D-06-0.385D-04-0.120D-03
 Coeff-Com: -0.990D-06 0.163D-02 0.456D-02-0.425D-03-0.259D-01-0.588D-01
 Coeff-Com:  0.341D-01 0.397D+00 0.648D+00
 Coeff:      0.166D-06 0.890D-06 0.997D-05 0.282D-06-0.385D-04-0.120D-03
 Coeff:     -0.990D-06 0.163D-02 0.456D-02-0.425D-03-0.259D-01-0.588D-01
 Coeff:      0.341D-01 0.397D+00 0.648D+00
 Gap=     0.122 Goal=   None    Shift=    0.000
 RMSDP=9.80D-08 MaxDP=6.73D-06 DE=-9.48D-10 OVMax= 9.57D-06

 Cycle  16  Pass 1  IDiag  1:
 RMSU=  5.17D-08    CP:  7.79D-01  1.67D+00  7.05D-01  8.14D-01  9.37D-01
                    CP:  9.54D-01  1.33D+00  1.08D+00  1.65D+00  1.41D+00
                    CP:  1.28D+00  1.29D+00  1.08D+00  1.21D+00  9.64D-01
 E= -1366.01329531964     Delta-E=       -0.000000000141 Rises=F Damp=F
 DIIS: error= 9.76D-08 at cycle  16 NSaved=  16.
 NSaved=16 IEnMin=16 EnMin= -1366.01329531964     IErMin=16 ErrMin= 9.76D-08
 ErrMax= 9.76D-08  0.00D+00 EMaxC= 1.00D-01 BMatC= 1.15D-11 BMatP= 7.35D-11
 IDIUse=1 WtCom= 1.00D+00 WtEn= 0.00D+00
 Coeff-Com: -0.413D-06 0.105D-05 0.607D-05 0.942D-05-0.157D-04-0.911D-04
 Coeff-Com: -0.364D-03-0.778D-04 0.221D-02 0.389D-02-0.226D-02-0.252D-01
 Coeff-Com: -0.474D-01-0.423D-02 0.292D+00 0.782D+00
 Coeff:     -0.413D-06 0.105D-05 0.607D-05 0.942D-05-0.157D-04-0.911D-04
 Coeff:     -0.364D-03-0.778D-04 0.221D-02 0.389D-02-0.226D-02-0.252D-01
 Coeff:     -0.474D-01-0.423D-02 0.292D+00 0.782D+00
 Gap=     0.122 Goal=   None    Shift=    0.000
 RMSDP=4.53D-08 MaxDP=2.07D-06 DE=-1.41D-10 OVMax= 5.22D-06

 Cycle  17  Pass 1  IDiag  1:
 RMSU=  2.54D-08    CP:  7.79D-01  1.67D+00  7.05D-01  8.14D-01  9.37D-01
                    CP:  9.54D-01  1.33D+00  1.08D+00  1.65D+00  1.41D+00
                    CP:  1.28D+00  1.30D+00  1.10D+00  1.27D+00  1.08D+00
                    CP:  1.07D+00
 E= -1366.01329531953     Delta-E=        0.000000000115 Rises=F Damp=F
 DIIS: error= 3.77D-08 at cycle  17 NSaved=  17.
 NSaved=17 IEnMin=16 EnMin= -1366.01329531964     IErMin=17 ErrMin= 3.77D-08
 ErrMax= 3.77D-08  0.00D+00 EMaxC= 1.00D-01 BMatC= 1.94D-12 BMatP= 1.15D-11
 IDIUse=1 WtCom= 1.00D+00 WtEn= 0.00D+00
 Coeff-Com: -0.140D-07 0.621D-07 0.980D-06 0.281D-05-0.161D-05-0.181D-04
 Coeff-Com: -0.158D-03-0.256D-03 0.242D-03 0.168D-02 0.356D-02-0.520D-03
 Coeff-Com: -0.218D-01-0.622D-01 0.143D-01 0.309D+00 0.756D+00
 Coeff:     -0.140D-07 0.621D-07 0.980D-06 0.281D-05-0.161D-05-0.181D-04
 Coeff:     -0.158D-03-0.256D-03 0.242D-03 0.168D-02 0.356D-02-0.520D-03
 Coeff:     -0.218D-01-0.622D-01 0.143D-01 0.309D+00 0.756D+00
 Gap=     0.122 Goal=   None    Shift=    0.000
 RMSDP=1.62D-08 MaxDP=8.89D-07 DE= 1.15D-10 OVMax= 1.62D-06

 Cycle  18  Pass 1  IDiag  1:
 RMSU=  1.11D-08    CP:  7.79D-01  1.67D+00  7.05D-01  8.14D-01  9.37D-01
                    CP:  9.54D-01  1.33D+00  1.08D+00  1.65D+00  1.41D+00
                    CP:  1.28D+00  1.30D+00  1.10D+00  1.29D+00  1.13D+00
                    CP:  1.17D+00  9.96D-01
 E= -1366.01329531952     Delta-E=        0.000000000008 Rises=F Damp=F
 DIIS: error= 2.18D-08 at cycle  18 NSaved=  18.
 NSaved=18 IEnMin=16 EnMin= -1366.01329531964     IErMin=18 ErrMin= 2.18D-08
 ErrMax= 2.18D-08  0.00D+00 EMaxC= 1.00D-01 BMatC= 5.44D-13 BMatP= 1.94D-12
 IDIUse=1 WtCom= 1.00D+00 WtEn= 0.00D+00
 Coeff-Com:  0.293D-07-0.128D-06-0.791D-06-0.383D-06 0.308D-05 0.181D-04
 Coeff-Com: -0.940D-05-0.114D-03-0.406D-03-0.496D-04 0.229D-02 0.446D-02
 Coeff-Com: -0.199D-02-0.360D-01-0.553D-01 0.773D-03 0.389D+00 0.697D+00
 Coeff:      0.293D-07-0.128D-06-0.791D-06-0.383D-06 0.308D-05 0.181D-04
 Coeff:     -0.940D-05-0.114D-03-0.406D-03-0.496D-04 0.229D-02 0.446D-02
 Coeff:     -0.199D-02-0.360D-01-0.553D-01 0.773D-03 0.389D+00 0.697D+00
 Gap=     0.122 Goal=   None    Shift=    0.000
 RMSDP=8.22D-09 MaxDP=4.04D-07 DE= 8.19D-12 OVMax= 8.97D-07

 SCF Done:  E(RMN15) =  -1366.01329532     A.U. after   18 cycles
            NFock= 18  Conv=0.82D-08     -V/T= 2.0024
 KE= 1.362777395731D+03 PE=-8.976445107939D+03 EE= 3.351394927100D+03
 Leave Link  502 at Tue Dec  5 07:37:39 2023, MaxMem=  2147483648 cpu:           11418.3 elap:             443.3
 (Enter /opt/gaussian/g16-c01/g16/l601.exe)
 Copying SCF densities to generalized density rwf, IOpCl= 0 IROHF=0.

 **********************************************************************

            Population analysis using the SCF Density.

 **********************************************************************

 Orbital symmetries:
       Occupied  (A) (A) (A) (A) (A) (A) (A) (A) (A) (A) (A) (A)
                 (A) (A) (A) (A) (A) (A) (A) (A) (A) (A) (A) (A)
                 (A) (A) (A) (A) (A) (A) (A) (A) (A) (A) (A) (A)
                 (A) (A) (A) (A) (A) (A) (A) (A) (A) (A) (A) (A)
                 (A) (A) (A) (A) (A) (A) (A) (A) (A) (A) (A) (A)
                 (A) (A) (A) (A) (A) (A) (A) (A) (A) (A) (A) (A)
                 (A) (A) (A) (A) (A) (A) (A) (A) (A) (A) (A) (A)
                 (A) (A) (A) (A) (A) (A) (A) (A) (A) (A) (A) (A)
                 (A) (A) (A) (A) (A) (A) (A) (A) (A) (A) (A) (A)
                 (A) (A)
       Virtual   (A) (A) (A) (A) (A) (A) (A) (A) (A) (A) (A) (A)
                 (A) (A) (A) (A) (A) (A) (A) (A) (A) (A) (A) (A)
                 (A) (A) (A) (A) (A) (A) (A) (A) (A) (A) (A) (A)
                 (A) (A) (A) (A) (A) (A) (A) (A) (A) (A) (A) (A)
                 (A) (A) (A) (A) (A) (A) (A) (A) (A) (A) (A) (A)
                 (A) (A) (A) (A) (A) (A) (A) (A) (A) (A) (A) (A)
                 (A) (A) (A) (A) (A) (A) (A) (A) (A) (A) (A) (A)
                 (A) (A) (A) (A) (A) (A) (A) (A) (A) (A) (A) (A)
                 (A) (A) (A) (A) (A) (A) (A) (A) (A) (A) (A) (A)
                 (A) (A) (A) (A) (A) (A) (A) (A) (A) (A) (A) (A)
                 (A) (A) (A) (A) (A) (A) (A) (A) (A) (A) (A) (A)
                 (A) (A) (A) (A) (A) (A) (A) (A) (A) (A) (A) (A)
                 (A) (A) (A) (A) (A) (A) (A) (A) (A) (A) (A) (A)
                 (A) (A) (A) (A) (A) (A) (A) (A) (A) (A) (A) (A)
                 (A) (A) (A) (A) (A) (A) (A) (A) (A) (A) (A) (A)
                 (A) (A) (A) (A) (A) (A) (A) (A) (A) (A) (A) (A)
                 (A) (A) (A) (A) (A) (A) (A) (A) (A) (A) (A) (A)
                 (A) (A) (A) (A) (A) (A) (A) (A) (A) (A) (A) (A)
                 (A) (A) (A) (A) (A) (A) (A) (A) (A) (A) (A) (A)
                 (A) (A) (A) (A) (A) (A) (A) (A) (A) (A) (A) (A)
                 (A) (A) (A) (A) (A) (A) (A) (A) (A) (A) (A) (A)
                 (A) (A) (A) (A) (A) (A) (A) (A) (A) (A) (A) (A)
                 (A) (A) (A) (A) (A) (A) (A) (A) (A) (A) (A) (A)
                 (A) (A) (A) (A) (A) (A) (A) (A) (A) (A) (A) (A)
                 (A) (A) (A) (A) (A) (A) (A) (A) (A) (A) (A) (A)
                 (A) (A) (A) (A) (A) (A) (A) (A) (A) (A) (A) (A)
                 (A) (A) (A) (A) (A) (A) (A) (A) (A) (A) (A) (A)
                 (A) (A) (A) (A) (A) (A) (A) (A) (A) (A) (A) (A)
                 (A) (A) (A) (A) (A) (A) (A) (A) (A) (A) (A) (A)
                 (A) (A) (A) (A) (A) (A) (A) (A) (A) (A) (A) (A)
                 (A) (A) (A) (A) (A) (A) (A) (A) (A) (A) (A) (A)
                 (A) (A) (A) (A) (A) (A) (A) (A) (A) (A) (A) (A)
                 (A) (A) (A) (A) (A) (A) (A) (A) (A) (A) (A) (A)
                 (A) (A) (A) (A) (A) (A) (A) (A) (A) (A) (A) (A)
                 (A) (A) (A) (A) (A) (A) (A) (A) (A) (A) (A) (A)
                 (A) (A) (A) (A) (A) (A) (A) (A) (A) (A) (A) (A)
                 (A) (A) (A) (A) (A) (A) (A) (A) (A) (A) (A) (A)
                 (A) (A) (A) (A) (A) (A) (A) (A) (A) (A) (A) (A)
                 (A) (A) (A) (A) (A) (A) (A) (A) (A) (A) (A) (A)
                 (A) (A) (A) (A) (A) (A) (A) (A) (A) (A) (A) (A)
                 (A) (A) (A) (A) (A) (A) (A) (A) (A) (A) (A) (A)
                 (A) (A) (A) (A) (A) (A) (A) (A) (A) (A) (A) (A)
                 (A) (A) (A) (A) (A) (A) (A) (A) (A) (A) (A) (A)
                 (A) (A) (A) (A) (A) (A) (A) (A) (A) (A) (A) (A)
                 (A) (A) (A) (A) (A) (A) (A) (A) (A) (A) (A) (A)
                 (A) (A) (A) (A) (A) (A) (A) (A) (A) (A) (A) (A)
                 (A) (A) (A) (A) (A) (A) (A) (A) (A) (A) (A) (A)
                 (A) (A) (A) (A) (A) (A) (A) (A) (A) (A) (A) (A)
                 (A) (A) (A) (A) (A) (A) (A) (A) (A) (A) (A) (A)
                 (A) (A) (A) (A) (A) (A) (A) (A) (A) (A) (A) (A)
                 (A) (A) (A) (A) (A) (A) (A) (A) (A) (A) (A) (A)
                 (A) (A) (A) (A) (A) (A) (A) (A) (A) (A) (A) (A)
                 (A) (A) (A) (A) (A) (A) (A) (A) (A) (A) (A) (A)
                 (A) (A) (A) (A) (A) (A) (A) (A) (A) (A) (A) (A)
                 (A) (A) (A) (A) (A) (A) (A) (A) (A) (A) (A) (A)
                 (A) (A) (A) (A) (A) (A) (A) (A) (A) (A) (A) (A)
                 (A) (A) (A) (A) (A) (A) (A) (A) (A) (A) (A) (A)
                 (A) (A) (A) (A) (A) (A) (A) (A) (A) (A) (A) (A)
                 (A) (A) (A) (A) (A) (A) (A) (A) (A) (A) (A) (A)
                 (A) (A) (A) (A) (A) (A) (A) (A) (A) (A) (A) (A)
                 (A) (A) (A) (A) (A) (A)
 The electronic state is 1-A.
 Alpha  occ. eigenvalues --  -18.86837 -18.82402 -18.76343 -18.75119 -10.18837
 Alpha  occ. eigenvalues --  -10.15381 -10.08920 -10.08240 -10.08033 -10.07482
 Alpha  occ. eigenvalues --  -10.07413 -10.07336 -10.07195 -10.07173 -10.06867
 Alpha  occ. eigenvalues --  -10.06788 -10.06781 -10.06751 -10.06216 -10.06125
 Alpha  occ. eigenvalues --  -10.06016 -10.05867 -10.05861 -10.05782 -10.05678
 Alpha  occ. eigenvalues --  -10.05603 -10.05573 -10.05363 -10.05349 -10.02212
 Alpha  occ. eigenvalues --  -10.00842  -6.68549  -1.16685  -1.08453  -1.05587
 Alpha  occ. eigenvalues --   -1.03698  -0.97695  -0.96196  -0.92261  -0.90741
 Alpha  occ. eigenvalues --   -0.87095  -0.86015  -0.84834  -0.84153  -0.81212
 Alpha  occ. eigenvalues --   -0.79853  -0.78422  -0.77175  -0.76151  -0.74885
 Alpha  occ. eigenvalues --   -0.71691  -0.70741  -0.69135  -0.68336  -0.67860
 Alpha  occ. eigenvalues --   -0.66991  -0.65843  -0.61631  -0.60861  -0.59172
 Alpha  occ. eigenvalues --   -0.58624  -0.58096  -0.57383  -0.57066  -0.55556
 Alpha  occ. eigenvalues --   -0.54755  -0.54615  -0.52940  -0.52636  -0.51850
 Alpha  occ. eigenvalues --   -0.51265  -0.50752  -0.49944  -0.49208  -0.49056
 Alpha  occ. eigenvalues --   -0.48546  -0.48196  -0.47866  -0.47617  -0.47402
 Alpha  occ. eigenvalues --   -0.47184  -0.46136  -0.45493  -0.45222  -0.44792
 Alpha  occ. eigenvalues --   -0.44514  -0.44412  -0.43925  -0.43439  -0.42421
 Alpha  occ. eigenvalues --   -0.41173  -0.40849  -0.40322  -0.40118  -0.39748
 Alpha  occ. eigenvalues --   -0.39231  -0.39163  -0.37721  -0.37365  -0.37185
 Alpha  occ. eigenvalues --   -0.36204  -0.35650  -0.34812  -0.33273  -0.31845
 Alpha  occ. eigenvalues --   -0.29480  -0.27892  -0.26366  -0.25482  -0.22802
 Alpha virt. eigenvalues --   -0.10630  -0.05279  -0.03953  -0.02486   0.00556
 Alpha virt. eigenvalues --    0.01439   0.01589   0.02409   0.02420   0.03194
 Alpha virt. eigenvalues --    0.03249   0.03509   0.03938   0.04169   0.04814
 Alpha virt. eigenvalues --    0.04888   0.05500   0.05834   0.06148   0.06466
 Alpha virt. eigenvalues --    0.06572   0.07283   0.07564   0.08196   0.08349
 Alpha virt. eigenvalues --    0.08379   0.08730   0.09216   0.09473   0.09690
 Alpha virt. eigenvalues --    0.10077   0.10235   0.10662   0.10907   0.11113
 Alpha virt. eigenvalues --    0.11290   0.11468   0.11588   0.11845   0.11976
 Alpha virt. eigenvalues --    0.12431   0.12565   0.12695   0.13095   0.13158
 Alpha virt. eigenvalues --    0.13358   0.13709   0.13775   0.13998   0.14197
 Alpha virt. eigenvalues --    0.14331   0.14728   0.14839   0.15025   0.15194
 Alpha virt. eigenvalues --    0.15251   0.15561   0.15697   0.15903   0.16175
 Alpha virt. eigenvalues --    0.16447   0.16521   0.17003   0.17180   0.17338
 Alpha virt. eigenvalues --    0.17645   0.17716   0.18094   0.18178   0.18505
 Alpha virt. eigenvalues --    0.18730   0.18984   0.19124   0.19351   0.19560
 Alpha virt. eigenvalues --    0.19754   0.19853   0.19916   0.20141   0.20289
 Alpha virt. eigenvalues --    0.20505   0.20678   0.21124   0.21332   0.21617
 Alpha virt. eigenvalues --    0.22009   0.22082   0.22322   0.22439   0.22657
 Alpha virt. eigenvalues --    0.22772   0.23001   0.23173   0.23321   0.23539
 Alpha virt. eigenvalues --    0.23616   0.23775   0.24158   0.24381   0.24633
 Alpha virt. eigenvalues --    0.24793   0.24915   0.24965   0.25142   0.25375
 Alpha virt. eigenvalues --    0.25656   0.26002   0.26088   0.26267   0.26520
 Alpha virt. eigenvalues --    0.26566   0.26991   0.27067   0.27426   0.27649
 Alpha virt. eigenvalues --    0.27754   0.27974   0.28265   0.28276   0.28585
 Alpha virt. eigenvalues --    0.28979   0.29181   0.29520   0.29887   0.30046
 Alpha virt. eigenvalues --    0.30499   0.30662   0.30858   0.31265   0.31348
 Alpha virt. eigenvalues --    0.31430   0.31829   0.32036   0.32449   0.32495
 Alpha virt. eigenvalues --    0.33002   0.33221   0.33577   0.33632   0.33768
 Alpha virt. eigenvalues --    0.33942   0.34348   0.34501   0.34752   0.35095
 Alpha virt. eigenvalues --    0.35560   0.35779   0.35890   0.36345   0.36379
 Alpha virt. eigenvalues --    0.36582   0.37005   0.37171   0.37258   0.38017
 Alpha virt. eigenvalues --    0.38279   0.38510   0.38790   0.39209   0.39291
 Alpha virt. eigenvalues --    0.39784   0.40002   0.40273   0.40946   0.41166
 Alpha virt. eigenvalues --    0.41759   0.42167   0.42348   0.42578   0.43203
 Alpha virt. eigenvalues --    0.43476   0.43871   0.44077   0.44753   0.45187
 Alpha virt. eigenvalues --    0.45892   0.45916   0.46376   0.46834   0.47596
 Alpha virt. eigenvalues --    0.48069   0.48152   0.48554   0.49156   0.49436
 Alpha virt. eigenvalues --    0.49969   0.50208   0.50681   0.51119   0.51667
 Alpha virt. eigenvalues --    0.52617   0.53046   0.53484   0.53751   0.54244
 Alpha virt. eigenvalues --    0.54293   0.54852   0.54931   0.55535   0.55618
 Alpha virt. eigenvalues --    0.55999   0.56263   0.56620   0.56982   0.57280
 Alpha virt. eigenvalues --    0.57327   0.57831   0.58124   0.58744   0.59058
 Alpha virt. eigenvalues --    0.59095   0.59393   0.59406   0.59909   0.60128
 Alpha virt. eigenvalues --    0.60528   0.60778   0.61102   0.61363   0.61881
 Alpha virt. eigenvalues --    0.62001   0.62195   0.62457   0.62733   0.63051
 Alpha virt. eigenvalues --    0.63238   0.63483   0.64106   0.64337   0.64615
 Alpha virt. eigenvalues --    0.64965   0.65118   0.65669   0.65949   0.66610
 Alpha virt. eigenvalues --    0.67039   0.67267   0.67751   0.68038   0.68600
 Alpha virt. eigenvalues --    0.68916   0.69302   0.69782   0.69885   0.70452
 Alpha virt. eigenvalues --    0.70817   0.71421   0.71967   0.72352   0.72746
 Alpha virt. eigenvalues --    0.72985   0.73334   0.73780   0.74454   0.74671
 Alpha virt. eigenvalues --    0.75023   0.75141   0.75485   0.75779   0.76265
 Alpha virt. eigenvalues --    0.76525   0.76781   0.76993   0.77703   0.77932
 Alpha virt. eigenvalues --    0.78194   0.78748   0.78995   0.79891   0.80395
 Alpha virt. eigenvalues --    0.80743   0.81155   0.81467   0.81644   0.82466
 Alpha virt. eigenvalues --    0.82594   0.82773   0.83363   0.84264   0.84415
 Alpha virt. eigenvalues --    0.84852   0.86285   0.86609   0.87079   0.87422
 Alpha virt. eigenvalues --    0.87654   0.88753   0.89237   0.89729   0.90448
 Alpha virt. eigenvalues --    0.90500   0.91315   0.91773   0.92066   0.92232
 Alpha virt. eigenvalues --    0.93540   0.93687   0.94199   0.94794   0.95300
 Alpha virt. eigenvalues --    0.95848   0.96320   0.96488   0.96600   0.97122
 Alpha virt. eigenvalues --    0.97466   0.97485   0.98170   0.98262   0.98886
 Alpha virt. eigenvalues --    0.98982   0.99500   0.99787   1.00703   1.01175
 Alpha virt. eigenvalues --    1.01476   1.02408   1.02902   1.03042   1.03109
 Alpha virt. eigenvalues --    1.03469   1.03900   1.04569   1.05183   1.05503
 Alpha virt. eigenvalues --    1.05821   1.06612   1.06840   1.07851   1.08284
 Alpha virt. eigenvalues --    1.09127   1.09726   1.10081   1.10286   1.10446
 Alpha virt. eigenvalues --    1.10947   1.11896   1.12805   1.13485   1.13951
 Alpha virt. eigenvalues --    1.14757   1.15415   1.15860   1.16595   1.17193
 Alpha virt. eigenvalues --    1.17892   1.18312   1.19510   1.20995   1.21355
 Alpha virt. eigenvalues --    1.22194   1.23045   1.23841   1.25838   1.25960
 Alpha virt. eigenvalues --    1.26835   1.27340   1.28235   1.30119   1.31557
 Alpha virt. eigenvalues --    1.32095   1.33577   1.34043   1.35030   1.37006
 Alpha virt. eigenvalues --    1.37234   1.37851   1.38202   1.38545   1.38793
 Alpha virt. eigenvalues --    1.40154   1.40586   1.41769   1.42641   1.43308
 Alpha virt. eigenvalues --    1.45054   1.45430   1.46321   1.47416   1.47906
 Alpha virt. eigenvalues --    1.48513   1.48770   1.49855   1.50084   1.50187
 Alpha virt. eigenvalues --    1.50478   1.50652   1.51219   1.51225   1.51337
 Alpha virt. eigenvalues --    1.51823   1.51909   1.52130   1.53597   1.53901
 Alpha virt. eigenvalues --    1.54247   1.54762   1.55759   1.56370   1.56548
 Alpha virt. eigenvalues --    1.56885   1.57680   1.58434   1.58541   1.58761
 Alpha virt. eigenvalues --    1.59313   1.59831   1.59901   1.60528   1.61073
 Alpha virt. eigenvalues --    1.61303   1.62757   1.63305   1.64155   1.65405
 Alpha virt. eigenvalues --    1.66065   1.66561   1.67305   1.68127   1.68811
 Alpha virt. eigenvalues --    1.69094   1.70189   1.70906   1.71583   1.71872
 Alpha virt. eigenvalues --    1.72027   1.72459   1.73235   1.73687   1.74048
 Alpha virt. eigenvalues --    1.74182   1.74275   1.74612   1.74652   1.75192
 Alpha virt. eigenvalues --    1.76326   1.77044   1.78282   1.78956   1.79839
 Alpha virt. eigenvalues --    1.81294   1.82589   1.82993   1.83628   1.84155
 Alpha virt. eigenvalues --    1.84632   1.85653   1.86422   1.86614   1.87039
 Alpha virt. eigenvalues --    1.88190   1.88665   1.88896   1.89864   1.89869
 Alpha virt. eigenvalues --    1.91131   1.91682   1.91985   1.92405   1.92943
 Alpha virt. eigenvalues --    1.93257   1.93847   1.94071   1.94688   1.94955
 Alpha virt. eigenvalues --    1.95656   1.96468   1.96703   1.97272   1.97401
 Alpha virt. eigenvalues --    1.97595   1.98608   1.98789   1.99304   1.99473
 Alpha virt. eigenvalues --    2.00725   2.01059   2.01556   2.01973   2.02663
 Alpha virt. eigenvalues --    2.03722   2.04558   2.05279   2.06852   2.08155
 Alpha virt. eigenvalues --    2.09135   2.09383   2.10888   2.11090   2.11790
 Alpha virt. eigenvalues --    2.12655   2.13081   2.13731   2.15488   2.15955
 Alpha virt. eigenvalues --    2.16298   2.17315   2.17941   2.19208   2.20216
 Alpha virt. eigenvalues --    2.21865   2.22356   2.23312   2.24927   2.25669
 Alpha virt. eigenvalues --    2.27607   2.28062   2.29893   2.30703   2.33071
 Alpha virt. eigenvalues --    2.33484   2.34311   2.35726   2.37258   2.37963
 Alpha virt. eigenvalues --    2.39033   2.39614   2.41376   2.41865   2.42375
 Alpha virt. eigenvalues --    2.43700   2.43995   2.44826   2.45074   2.45758
 Alpha virt. eigenvalues --    2.47006   2.47332   2.47855   2.49181   2.50632
 Alpha virt. eigenvalues --    2.51721   2.52403   2.53290   2.53815   2.54757
 Alpha virt. eigenvalues --    2.55550   2.56377   2.59249   2.60530   2.60870
 Alpha virt. eigenvalues --    2.62269   2.62866   2.63322   2.64058   2.65279
 Alpha virt. eigenvalues --    2.65710   2.66270   2.66891   2.67521   2.67539
 Alpha virt. eigenvalues --    2.68269   2.68633   2.68996   2.69382   2.69898
 Alpha virt. eigenvalues --    2.70468   2.70700   2.71846   2.72366   2.73083
 Alpha virt. eigenvalues --    2.73378   2.73686   2.74403   2.74652   2.74869
 Alpha virt. eigenvalues --    2.75092   2.75687   2.75852   2.76498   2.76966
 Alpha virt. eigenvalues --    2.77176   2.78955   2.79512   2.79710   2.80005
 Alpha virt. eigenvalues --    2.80905   2.81986   2.82339   2.83747   2.83998
 Alpha virt. eigenvalues --    2.85806   2.86137   2.87349   2.87679   2.89170
 Alpha virt. eigenvalues --    2.89426   2.90398   2.90430   2.90797   2.91184
 Alpha virt. eigenvalues --    2.92173   2.92471   2.93556   2.94018   2.94714
 Alpha virt. eigenvalues --    2.95071   2.97136   2.97865   2.98538   2.98998
 Alpha virt. eigenvalues --    2.99699   3.01125   3.01719   3.03784   3.05100
 Alpha virt. eigenvalues --    3.07012   3.07924   3.08708   3.10275   3.14087
 Alpha virt. eigenvalues --    3.17531   3.17672   3.20567   3.20858   3.21917
 Alpha virt. eigenvalues --    3.23429   3.24293   3.26303   3.28502   3.28818
 Alpha virt. eigenvalues --    3.30953   3.33223   3.34645   3.36368   3.36719
 Alpha virt. eigenvalues --    3.37383   3.38401   3.39568   3.39940   3.40171
 Alpha virt. eigenvalues --    3.41048   3.41512   3.42968   3.45627   3.46866
 Alpha virt. eigenvalues --    3.47686   3.48754   3.49762   3.50347   3.52088
 Alpha virt. eigenvalues --    3.54021   3.55607   3.57930   3.58870   3.59605
 Alpha virt. eigenvalues --    3.62303   3.62594   3.64572   3.68342   3.70213
 Alpha virt. eigenvalues --    3.71052   3.73319   3.75258   3.76727   3.77859
[...]
 000112,-0.00000186,0.00000427,0.00000522,0.00000155,-0.00005479,-0.000
 02182,-0.00002659,0.00000628,-0.00001382,0.00005815,0.00001295,-0.0000
 6768,0.00015415,0.00007777,0.00019413,-0.00056550,-0.00003094,-0.00005
 035,-0.00001962,-0.00127865,-0.00149373,0.00825005,-0.00058337,-0.0012
 4146,0.00468109,-0.06953087,-0.03591354,-0.06072193,-0.00621022,-0.002
 00487,0.00214081,-0.00050092,-0.00226817,0.00470447,0.00041429,0.00014
 175,-0.00061764,0.00006535,0.00018651,-0.00079790,-0.00000772,0.000001
 11,0.00000254,0.00000003,-0.00000185,-0.00000042,0.00000049,0.00000017
 ,-0.00000034,-0.00000049,0.00000078,0.00000032,0.00000284,-0.00000358,
 0.00000007,0.00000237,0.00000284,0.00000152,0.00000023,0.00000132,-0.0
 0000075,0.00000052,-0.00000138,0.00000252,-0.00000066,0.00000063,0.000
 00101,-0.00000010,0.00000071,0.00000058,-0.00000054,0.00000004,0.00000
 039,-0.00000053,-0.00000042,0.00000029,0.00000043,-0.00000011,0.000000
 50,0.00000119,0.00000010,0.00000117,0.00000464,0.00000982,-0.00000927,
 -0.00000382,-0.00000762,0.00002961,-0.00003196,-0.00002405,0.00013629,
 0.00096647,0.00127698,-0.00467879,0.07621781,0.04061807,0.04990356,-0.
 00000015,-0.00000713,-0.00000607,-0.00002381,0.00003416,0.00001971,0.0
 0003155,-0.00004516,-0.00001551,0.00002072,0.00011063,-0.00001041,-0.0
 0002350,-0.00000136,-0.00003212,0.00001481,0.00000445,0.00002195,-0.00
 000050,-0.00001815,0.00003128,-0.00000255,-0.00014370,-0.00005558,0.00
 020330,0.00016378,0.00012077,-0.00006592,-0.00001036,0.00000153,0.0000
 0227,-0.00001704,-0.00001026,-0.00001570,-0.00000516,0.00000137,0.0000
 0839,0.00000064,0.00000141,-0.00000950,-0.00000882,-0.00000183,-0.0000
 0293,0.00000542,0.00000036,-0.00000086,0.00000147,0.00000060,-0.000000
 91,0.00000954,-0.00000076,-0.00000695,0.00000431,-0.00000138,0.0000229
 2,0.00002658,0.00000615,-0.00031479,-0.00006514,-0.00007932,0.00028137
 ,0.00021194,0.00009671,-0.00065666,-0.00016848,-0.00004989,-0.00002227
 ,-0.00018628,-0.00006824,0.00015180,0.00004195,0.00019451,-0.00003847,
 -0.00062758,-0.00001977,0.00158742,-0.00065264,-0.00086150,0.00460534,
 -0.00325126,-0.00047093,-0.26124252,0.13175695,-0.01338273,-0.01727956
 ,0.01669274,-0.00048928,-0.00237125,-0.00308696,-0.00284505,-0.0002930
 1,0.00098852,0.00011860,-0.00008994,-0.00012266,-0.00004022,-0.0000002
 8,-0.00000579,-0.00000371,0.00000137,0.00000342,-0.00000037,0.00000046
 ,0.00000165,0.00000410,-0.00000157,0.00000160,-0.00001048,-0.00000151,
 0.00000398,-0.00000648,-0.00000762,-0.00000609,0.00000467,0.00000273,-
 0.00000569,0.00000060,-0.00000147,0.00000240,0.00000061,-0.00000018,0.
 00000222,0.00000012,-0.00000207,0.00000057,-0.00000003,-0.00000243,-0.
 00000111,-0.00000010,0.00000143,-0.00000109,-0.00000010,0.00000303,0.0
 0000139,-0.00000126,0.00000897,-0.00000107,0.00000047,-0.00001578,0.00
 001761,-0.00000855,-0.00001773,0.00003187,-0.00000459,0.00008252,-0.00
 018211,-0.00004120,0.00040295,0.00033936,0.00071309,0.27432917,0.00000
 462,0.00000304,0.00000282,-0.00000807,-0.00000655,-0.00000768,0.000007
 02,0.00000366,0.00000756,-0.00000505,-0.00001310,-0.00000355,-0.000007
 21,0.00000279,0.00000242,0.00000224,-0.00000283,0.00000420,0.00001351,
 0.00000317,-0.00000718,0.00000493,0.00003038,0.00001792,-0.00007199,-0
 .00003510,-0.00003145,0.00002210,0.00000078,-0.00000334,-0.00000110,0.
 00000579,0.00000416,0.00000561,0.00000157,-0.00000020,-0.00000329,-0.0
 0000034,-0.00000158,0.00000305,0.00000378,0.00000200,0.00000113,-0.000
 00188,-0.00000072,0.00000018,-0.00000078,0.00000040,0.00000035,-0.0000
 0292,0.00000063,0.00000189,-0.00000232,0.00000023,-0.00000843,-0.00000
 735,-0.00000208,0.00007534,-0.00001144,0.00001634,-0.00019541,0.000008
 84,-0.00003008,-0.00015318,0.00018026,0.00015026,-0.00015522,-0.000274
 72,-0.00013525,0.00040195,-0.00000291,0.00026300,-0.00115266,-0.000394
 90,-0.00015148,-0.00102217,-0.00479782,-0.00248563,0.02614819,-0.01062
 920,0.00192510,0.13239988,-0.14106343,0.00235094,-0.01301498,0.0110915
 6,-0.00108670,-0.00266761,-0.00025496,-0.00257657,-0.00017592,0.000507
 49,0.00003945,0.00002581,0.00004301,0.00002724,-0.00000045,0.00000189,
 0.00000061,-0.00000015,-0.00000034,-0.00000021,0.00000017,-0.00000080,
 -0.00000031,-0.00000052,0.00000126,0.00000158,-0.00000157,-0.00000120,
 -0.00000175,0.00000076,0.00000052,-0.00000044,-0.00000098,0.00000171,-
 0.00000096,0.00000033,-0.00000082,-0.00000055,0.,-0.00000098,-0.000000
 30,0.00000093,-0.00000031,-0.00000006,0.00000087,0.00000056,-0.0000001
 3,-0.00000066,0.00000028,-0.00000023,-0.00000160,-0.00000017,-0.000000
 30,-0.00000251,0.00000021,-0.00000023,0.00001218,0.00000521,-0.0000072
 3,-0.00005660,0.00003677,-0.00001097,0.00121137,-0.00066120,0.00006764
 ,-0.00057887,0.00085875,0.00073850,-0.14134640,0.14496035,0.00000117,-
 0.00000369,0.00000076,-0.00001497,0.00001821,0.00000705,0.00001987,-0.
 00001120,-0.00001486,-0.00000678,0.00000815,0.00000131,0.00001240,-0.0
 0001434,0.00001698,-0.00000901,0.00000795,-0.00000724,-0.00000740,0.00
 000322,-0.00000954,0.00000073,-0.00002376,-0.00001647,0.00003318,0.000
 02528,0.00003082,-0.00000869,0.00000100,-0.00000176,-0.00000104,-0.000
 00282,-0.00000468,-0.00000214,-0.00000065,0.00000101,0.00000081,-0.000
 00014,-0.00000005,-0.00000141,-0.00000069,-0.00000092,-0.00000059,0.00
 000051,0.00000008,-0.00000003,0.00000043,-0.00000067,0.00000012,0.0000
 0119,-0.00000093,-0.00000111,0.00000107,0.00000013,0.00000411,0.000003
 23,0.00000039,-0.00004642,-0.00002067,0.00000158,0.00000612,0.00003926
 ,-0.00001886,-0.00001033,0.00012980,-0.00061321,-0.00007218,-0.0001220
 9,0.00009983,0.00029291,0.00018978,-0.00071472,-0.00014327,-0.00004884
 ,-0.00072800,-0.00093833,-0.00240602,0.00454686,0.00618661,-0.00375390
 ,0.00359239,-0.01322789,0.00219569,-0.04035829,-0.00722266,0.00467227,
 0.00441279,-0.00280034,-0.00266973,0.00767089,-0.00015058,0.00028126,0
 .00021412,0.00000147,0.00000612,-0.00001888,-0.00000077,-0.00000243,-0
 .00000028,0.00000129,0.00000065,-0.00000045,-0.00000072,0.00000150,0.0
 0000114,0.00000154,-0.00000553,0.00000241,0.00000089,0.00000188,0.0000
 0333,0.00000185,0.00000199,-0.00000146,0.00000038,-0.00000069,0.000001
 47,-0.00000047,0.00000045,0.00000080,-0.00000012,0.00000020,0.00000044
 ,-0.00000028,0.00000014,0.00000036,-0.00000029,-0.00000006,0.00000049,
 0.00000022,-0.00000006,0.00000075,0.00000055,0.00000023,0.00000059,0.0
 0000166,0.00000143,0.00000543,-0.00000879,-0.00000566,0.00004254,-0.00
 002322,0.00000867,0.00003450,0.00027293,-0.00020499,0.00009709,0.00050
 883,0.00091642,-0.00257903,0.01615589,-0.00037597,0.02885989,0.0000222
 0,0.00000258,0.00000759,-0.00006170,0.00000396,-0.00001453,0.00007153,
 0.00001024,0.00002896,-0.00005476,-0.00001031,-0.00001619,-0.00007179,
 0.00002027,-0.00003262,0.00002434,-0.00000522,0.00003259,0.00007343,-0
 .00000306,-0.00000307,0.00003983,-0.00001263,0.00001949,-0.00010017,-0
 .00002078,-0.00003526,0.00004005,-0.00000005,-0.00000019,0.00000301,0.
 00001411,0.00000576,0.00000891,0.00000085,-0.00000045,-0.00000437,0.00
 000014,0.00000080,0.00000565,0.00000444,-0.00000055,0.00000144,-0.0000
 0254,0.00000025,0.00000091,-0.00000177,0.00000022,-0.00000029,-0.00000
 391,-0.00000053,0.00000434,-0.00000552,0.00000251,-0.00001563,-0.00001
 290,-0.00000447,0.00013094,0.00000373,0.00002613,-0.00011974,0.0001566
 6,0.00000630,0.00012270,-0.00041603,-0.00004286,0.00015400,0.00010593,
 0.00008351,0.00038736,0.00125613,0.00031648,-0.00403122,0.00209862,-0.
 00131187,-0.00095198,0.00002771,0.00000299,-0.00403951,-0.00138045,-0.
 00270301,0.00381060,-0.02692392,-0.00642374,-0.05680015,-0.00858734,-0
 .00570583,0.00408343,0.02516703,0.00588115,0.00142204,0.00114672,0.001
 14055,0.00009424,-0.00010874,-0.00002233,-0.00000068,0.00000448,0.0000
 0187,0.00000148,0.00000104,-0.00000031,0.00000168,-0.00000009,0.000002
 43,-0.00002078,0.00002779,0.00001967,-0.00001902,-0.00003611,-0.000012
 34,0.00001710,0.00000004,-0.00000264,-0.00000183,0.00000224,-0.0000007
 7,0.00000192,-0.00000197,-0.00000033,0.00000030,-0.00000166,-0.0000001
 3,0.00000144,-0.00000049,-0.00000008,0.00000124,0.00000074,-0.00000016
 ,-0.00000143,0.00000008,-0.00000028,-0.00000470,-0.00000047,-0.0000010
 3,0.00000930,-0.00000148,-0.00000643,-0.00001576,-0.00005715,-0.000023
 66,-0.00032546,0.00022383,-0.00004349,0.00008139,-0.00005550,0.0002070
 5,0.00001136,-0.00126000,-0.00027671,0.00073292,0.00026887,0.00122373,
 0.05555890,-0.00000977,0.00000753,-0.00000242,0.00005410,-0.00003041,-
 0.00001059,-0.00006256,0.00001920,0.00001832,0.00002229,-0.00006215,0.
 00000992,0.00003759,-0.00000282,0.00002071,-0.00001574,-0.00000054,-0.
 00002073,-0.00002838,0.00001116,-0.00000952,-0.00001871,0.00010618,0.0
 0003564,-0.00007846,-0.00010373,-0.00006461,0.00002241,0.00000835,-0.0
 0000126,-0.00000466,0.00000180,0.00000546,0.00000572,0.00000281,-0.000
 00043,-0.00000364,-0.00000051,0.00000077,0.00000425,0.00000286,-0.0000
 0054,0.00000116,-0.00000191,0.00000089,0.00000032,0.00000027,-0.000000
 11,0.00000132,-0.00000411,-0.00000059,0.00000172,0.00000070,0.00000090
 ,-0.00000494,-0.00001043,-0.00000053,0.00012902,0.00003360,0.00004355,
 -0.00011425,-0.00019072,-0.00012668,0.00032870,-0.00001972,0.00004996,
 0.00014392,0.00024234,0.00009683,-0.00071342,-0.00063183,-0.00032247,0
 .00308344,0.00060666,-0.00043449,0.00005798,0.00052289,0.00035756,-0.0
 0198086,0.00128548,-0.00199581,0.00258195,-0.00759213,-0.00243825,-0.0
 0885230,-0.32767832,-0.06789249,-0.00280751,-0.01250751,-0.00415716,-0
 .00175005,0.00087225,0.00055660,0.00001066,0.00015258,0.00006536,0.000
 00104,0.00000313,0.00000124,-0.00000198,-0.00000292,0.00000119,0.00000
 008,-0.00000213,-0.00000387,0.00001109,-0.00001401,-0.00000065,0.00000
 574,0.00001228,0.00000423,-0.00000254,0.00000268,-0.00000088,-0.000001
 37,0.00000258,-0.00000226,-0.00000038,-0.00000029,-0.00000080,-0.00000
 021,-0.00000054,-0.00000026,0.00000069,-0.00000023,-0.00000025,0.00000
 103,0.00000042,-0.00000016,-0.00000026,0.00000110,-0.00000014,0.000000
 43,-0.00000131,0.00000044,-0.00001644,0.00000433,0.00000146,0.00002639
 ,0.00003418,0.00000812,0.00020939,-0.00012364,-0.00002411,-0.00005540,
 -0.00014635,0.00019502,0.00014350,-0.00048022,-0.00007033,-0.00048046,
 0.00040919,0.00120129,0.00919477,0.34516994,0.00000286,-0.00001009,0.0
 0001214,-0.00003554,0.00003931,0.00000837,0.00005509,-0.00000041,-0.00
 004714,-0.00002097,-0.00005697,0.00003581,0.00009123,-0.00005368,0.000
 08185,-0.00006112,0.00003328,-0.00006288,-0.00006161,0.00002639,-0.000
 04024,0.00000091,0.00005635,-0.00000306,-0.00006839,-0.00004575,-0.000
 03926,0.00001718,-0.00000275,0.00000033,-0.00000188,0.00000391,-0.0000
 0078,0.00000492,0.00000133,0.00000046,-0.00000291,0.00000041,-0.000002
 55,0.00000339,0.00000143,0.00000128,0.00000080,-0.00000151,-0.00000140
 ,-0.00000018,-0.00000013,-0.00000062,0.00000044,-0.00000269,-0.0000001
 7,0.00000203,-0.00000112,0.00000075,-0.00000756,-0.00000578,-0.0000036
 3,0.00010006,0.00001795,-0.00002738,-0.00013440,-0.00002507,0.00017224
 ,0.00013846,-0.00012378,0.00003503,0.00008657,0.00011847,-0.00007649,-
 0.00012958,0.00005272,0.00014308,-0.00108939,-0.00062662,0.00478764,0.
 00003186,0.00034273,-0.00089876,-0.00284003,-0.00185434,0.00733147,0.0
 0031251,-0.00810994,0.00344163,-0.00574533,-0.06798218,-0.05410851,-0.
 00051487,0.00131757,0.00346102,0.00042439,0.00115342,-0.00271165,0.000
 05724,0.00001893,-0.00004799,-0.00000205,-0.00000237,0.00000121,0.0000
 0262,-0.00000071,-0.00000172,-0.00000016,0.00000330,0.00000065,0.00003
 071,-0.00003583,0.00000046,0.00001917,0.00001956,0.00002967,0.00000394
 ,0.00000522,-0.00000776,-0.00000020,0.00000145,0.00000250,-0.00000014,
 -0.00000047,0.00000073,-0.00000028,-0.00000028,0.00000050,0.00000038,-
 0.00000020,0.00000054,0.00000076,0.00000020,0.00000063,-0.00000015,0.0
 0000044,0.00000140,0.00000023,-0.00000065,0.00000364,-0.00000252,-0.00
 000674,0.00000901,-0.00000374,-0.00000954,0.00003588,-0.00004540,-0.00
 002142,0.00015441,0.00020650,0.00019191,-0.00095704,0.00004105,-0.0003
 4409,-0.00010246,0.00104911,0.00133430,-0.00472595,0.00797338,0.074755
 29,0.04389459,0.00005033,0.00003388,0.00006288,-0.00019233,-0.00003015
 ,-0.00011793,0.00020301,0.00021225,0.00019352,-0.00109136,-0.00066899,
 -0.00008662,-0.00025919,0.00008299,-0.00000906,-0.00003555,0.00003662,
 -0.00012642,0.00024372,-0.00000318,-0.00007112,0.00053987,-0.00029012,
 0.00011326,-0.00036795,0.00020354,-0.00012282,0.00013284,-0.00005482,0
 .00003378,0.00003422,0.00006708,0.00001848,0.00002787,-0.00000617,-0.0
 0000351,-0.00000929,0.00000384,-0.00000289,0.00001623,0.00001466,0.000
 00283,0.00000606,-0.00000642,-0.00000131,0.00000461,-0.00000990,-0.000
 00046,-0.00000589,-0.00001360,0.00000106,0.00002039,-0.00002895,0.0000
 0174,-0.00007414,-0.00003944,-0.00001410,0.00054782,-0.00025298,-0.000
 25051,0.00038598,0.00275344,0.00226356,0.00549120,0.02412863,0.0054495
 7,-0.00408527,0.00246463,-0.00152865,-0.00115241,-0.00001570,0.0000165
 8,-0.00382456,-0.00101676,-0.00209942,0.00013022,-0.00120124,-0.000173
 16,0.00018252,-0.00030377,-0.00002049,0.00027022,0.00052359,0.00017545
 ,0.00120696,-0.00152517,0.00054192,0.00307569,-0.02487461,-0.00602771,
 -0.05592210,-0.01002227,-0.00455298,-0.00185264,-0.00153363,-0.0015564
 3,0.00000836,0.00002170,0.00001736,0.00000117,-0.00000003,-0.00000514,
 0.00000859,-0.00000071,0.00000817,-0.00003553,0.00014323,0.00019688,0.
 00003699,-0.00018943,-0.00000850,0.00011660,0.00003676,-0.00001739,-0.
 00000496,0.00000646,0.00000299,0.00000956,-0.00000844,-0.00000032,0.00
 000207,-0.00000631,-0.00000023,0.00000433,-0.00000138,0.00000005,0.000
 00379,0.00000214,-0.00000007,-0.00000489,-0.00000049,-0.00000092,-0.00
 002172,-0.00000329,0.00000043,0.00015820,-0.00006549,-0.00002075,0.000
 12113,0.00137687,0.00018478,0.00005994,-0.00004940,0.00014169,-0.00032
 102,-0.00014850,-0.00012064,-0.00000482,0.00006745,0.00000659,0.000016
 94,0.00001931,-0.00002945,-0.00027898,0.00092358,0.00011062,0.05642711
 ,0.00009063,-0.00004508,0.00001102,-0.00031070,0.00023692,0.00001509,0
 .00048135,-0.00002190,0.00016317,-0.00003230,0.00048534,-0.00000267,-0
 .00009850,-0.00005675,-0.00010517,-0.00009574,0.00019843,0.00011007,0.
 00007632,-0.00000384,0.00005674,-0.00009908,-0.00017603,-0.00001085,0.
 00017649,0.00020312,-0.00003484,-0.00004879,-0.00003656,0.00003521,-0.
 00000228,-0.00001910,-0.00000937,-0.00000813,-0.00000054,0.00000408,0.
 00000403,-0.00000056,0.00000192,-0.00000419,-0.00000506,-0.00000079,-0
 .00000187,0.00000328,0.00000097,-0.00000084,0.00000098,-0.00000063,0.0
 0000014,0.00000836,0.00000126,-0.00000713,-0.00000003,-0.00001108,0.00
 000980,0.00002887,0.00001316,-0.00018933,0.00001665,-0.00012713,-0.000
 11845,-0.00183247,0.00037988,-0.00164996,-0.01250549,-0.00447827,0.003
 10878,0.00088522,-0.00072545,-0.00048611,0.00049445,0.00025130,-0.0010
 6125,0.00108485,-0.00129449,0.00029823,-0.00041451,0.00005288,-0.00002
 001,0.00005438,0.00002706,-0.00008314,0.00004294,-0.00002066,0.0010347
 4,0.00099167,0.00121554,0.00159291,-0.00675874,-0.00239110,-0.00765448
 ,-0.32979931,-0.06644687,-0.00323437,0.00063592,-0.00049334,-0.0000066
 6,-0.00000416,-0.00000667,0.00001658,0.00001288,0.00000584,0.00001847,
 0.00000748,0.00001762,0.00008351,0.00012849,-0.00002640,0.00015696,-0.
 00013200,-0.00010759,0.00006031,-0.00006508,-0.00001224,0.00000046,-0.
 00000156,-0.00000258,-0.00000183,0.00000121,-0.00000078,-0.00000037,0.
 00000091,-0.00000032,-0.00000058,0.00000001,-0.00000012,-0.00000124,-0
 .00000014,0.00000019,0.00000002,-0.00000120,-0.00000080,0.00000049,0.0
 0000358,0.00000221,-0.00004561,-0.00003292,0.00004776,-0.00016719,-0.0
 0050702,-0.00029581,-0.00007089,-0.00012465,0.00014992,-0.00010573,-0.
 00004286,-0.00006356,-0.00000779,0.00002662,-0.00000195,-0.00001147,0.
 00000553,-0.00004534,-0.00083290,0.00009198,-0.00017076,0.00924870,0.3
 4693749,0.00005525,-0.00005440,0.00005998,-0.00034462,0.00017067,0.000
 02067,0.00040980,0.00010366,-0.00012055,0.00000758,-0.00023086,0.00002
 285,0.00034281,-0.00027317,0.00045010,-0.00021584,0.00016141,-0.000135
 86,-0.00022154,0.00011373,-0.00019762,-0.00009098,0.00012823,-0.000094
 95,-0.00013089,-0.00042079,0.00014218,0.00005685,0.00006563,-0.0000291
 6,0.00000824,0.00000929,0.00000275,-0.00000071,-0.00000020,0.,0.000000
 72,0.00000378,0.00000476,0.00000071,0.00000573,-0.00000515,0.00000451,
 -0.00000006,0.,0.00000298,-0.00000230,-0.00000309,-0.00000044,-0.00000
 756,0.00000054,0.00001306,0.00000452,0.00001601,-0.00000118,-0.0000333
 0,-0.00002501,0.00050163,-0.00002579,0.00022585,0.00047275,0.00043115,
 -0.00442633,0.00085926,0.00121700,0.00583722,-0.00162298,-0.00099363,0
 .00612736,0.00006717,0.00037851,-0.00090889,-0.00208901,-0.00108487,0.
 00484416,0.00015734,-0.00022255,-0.00027279,0.00002127,0.00001962,-0.0
 0008875,0.00002075,0.00003158,0.00002248,0.00120135,0.00070373,-0.0029
 4105,-0.00028475,-0.00725392,0.00298167,-0.00434092,-0.06745650,-0.055
 36268,-0.00223620,-0.00011512,-0.00062945,-0.00000609,-0.00000051,-0.0
 0000037,0.00001500,0.00000767,-0.00000052,0.00000975,0.00001094,0.0000
 1067,0.00021891,-0.00017199,-0.00022977,0.00008276,0.00016778,0.000103
 08,-0.00009397,-0.00004059,-0.00003263,-0.00000469,0.00000423,0.000003
 47,0.00000191,-0.00000229,0.00000217,0.00000014,-0.00000148,0.00000139
 ,0.00000111,-0.00000030,0.00000119,0.00000150,0.00000029,0.00000101,-0
 .00000053,0.00000063,0.00000348,-0.00000097,-0.00000105,0.00000167,0.0
 0006668,0.00006038,-0.00011578,-0.00006106,0.00006342,0.00044994,0.000
 15355,0.00014102,-0.00074754,-0.00010304,-0.00006664,0.00010530,-0.000
 00631,0.00001307,0.00003789,-0.00002587,-0.00003417,0.00016804,-0.0002
 9760,0.00015164,0.00021852,0.00742484,0.07432472,0.04450155\\0.0000017
 3,0.00000640,-0.00000516,-0.00000204,-0.00000785,0.00000535,-0.0000046
 1,-0.00000073,0.00000530,0.00003828,0.00002307,-0.00001472,-0.00002367
 ,-0.00000364,0.00000730,0.00000524,-0.00000131,-0.00000594,0.00001112,
 -0.00000110,-0.00000187,-0.00000918,0.00000034,0.00000273,-0.00001826,
 -0.00000040,-0.00000440,0.00001212,-0.00000096,0.00000096,0.00000009,-
 0.00000217,0.00000011,-0.00000045,-0.00000013,-0.00000017,-0.00000093,
 -0.00000237,-0.00000028,0.00000146,0.00000091,0.00000013,-0.00000041,-
 0.00000267,0.00000030,0.00000004,0.00000114,0.00000062,0.00000038,-0.0
 0000016,0.00000011,0.00000156,0.00000009,0.00000062,-0.00000749,0.0000
 0078,-0.00000182,0.00000961,-0.00000120,0.00000359,-0.00001137,0.00001
 765,0.00001255,0.00000637,-0.00000292,-0.00000113,-0.00000057,0.000000
 99,-0.00000210,0.00000150,0.00000071,-0.00000018,-0.00000351,-0.000001
 73,-0.00000141,0.00000107,-0.00000076,-0.00000014,0.00000121,0.0000001
 0,-0.00000064,-0.00000027,0.00000098,-0.00000046,-0.00000262,0.0000025
 5,-0.00000003,0.00000405,0.00000029,-0.00000109,-0.00000589,0.00000026
 ,0.00000018,-0.00000500,-0.00002428,-0.00000494,0.00000161,-0.00000022
 ,0.00000025,0.00000137,-0.00000456,0.00000136,-0.00000421,-0.00000235,
 0.00000273,0.00000037,0.00000079,0.00000138,0.00000018,-0.00000078,0.0
 0000167,0.00000004,0.00000163,0.00000286,-0.00000167,0.00000167,0.0000
 0040,0.00000020,-0.00000023,-0.00000013,0.00000008,-0.00000026,0.,0.00
 000008,0.,0.00000019,0.00000007,-0.00000040,0.00000075,-0.00000005,-0.
 00000019,0.00000102,-0.00000029,0.00000059,0.00000203,0.00000293,0.000
 00152,-0.00000088,-0.00000119,-0.00000095,-0.00000202,0.00000096,0.000
 00022,-0.00000148,-0.00000054,0.00000074,-0.00000121,-0.00000040,0.000
 00049,-0.00000104,-0.00000015,0.00000033,-0.00000061,0.00000064,0.0000
 0012,-0.00000045,0.00000041,-0.00000006,-0.00000019\\\@
 The archive entry for this job was punched.


 ERWIN WITH HIS PSI CAN DO
 CALCULATIONS QUITE A FEW.
 BUT ONE THING HAS NOT BEEN SEEN
 JUST WHAT DOES PSI REALLY MEAN.
 -- WALTER HUCKEL, TRANS. BY FELIX BLOCH
 Job cpu time:       2 days  2 hours  6 minutes 12.0 seconds.
 Elapsed time:       0 days  1 hours 58 minutes 58.5 seconds.
 File lengths (MBytes):  RWF=   3023 Int=      0 D2E=      0 Chk=     72 Scr=      1
 Normal termination of Gaussian 16 at Tue Dec  5 13:42:07 2023.
