 Entering Gaussian System, Link 0=g16
 Input=/home/exlonk/in_progress/3413.inp
 Output=/home/exlonk/in_progress/3413.log
 Initial command:
 /opt/gaussian/g16-c01/g16/l1.exe "/lustre/tmp/slurm/2191185/Gau-1093623.inp" -scrdir="/lustre/tmp/slurm/2191185/"
 Default CPUs for threads: 0-4,7-9,13-15,19-20,24-26,28-29,31-32,36-38,42-44
 Default is to use a total of  26 processors:
                               26 via shared-memory
                                1 via Linda
 Entering Link 1 = /opt/gaussian/g16-c01/g16/l1.exe PID=   1093624.
  
 Copyright (c) 1988-2019, Gaussian, Inc.  All Rights Reserved.
  
 This is part of the Gaussian(R) 16 program.  It is based on
 the Gaussian(R) 09 system (copyright 2009, Gaussian, Inc.),
 the Gaussian(R) 03 system (copyright 2003, Gaussian, Inc.),
 the Gaussian(R) 98 system (copyright 1998, Gaussian, Inc.),
 the Gaussian(R) 94 system (copyright 1995, Gaussian, Inc.),
 the Gaussian 92(TM) system (copyright 1992, Gaussian, Inc.),
 the Gaussian 90(TM) system (copyright 1990, Gaussian, Inc.),
 the Gaussian 88(TM) system (copyright 1988, Gaussian, Inc.),
 the Gaussian 86(TM) system (copyright 1986, Carnegie Mellon
 University), and the Gaussian 82(TM) system (copyright 1983,
 Carnegie Mellon University). Gaussian is a federally registered
 trademark of Gaussian, Inc.
  
 This software contains proprietary and confidential information,
 including trade secrets, belonging to Gaussian, Inc.
  
 This software is provided under written license and may be
 used, copied, transmitted, or stored only in accord with that
 written license.
  
 The following legend is applicable only to US Government
 contracts under FAR:
  
                    RESTRICTED RIGHTS LEGEND
  
 Use, reproduction and disclosure by the US Government is
 subject to restrictions as set forth in subparagraphs (a)
 and (c) of the Commercial Computer Software - Restricted
 Rights clause in FAR 52.227-19.
  
 Gaussian, Inc.
 340 Quinnipiac St., Bldg. 40, Wallingford CT 06492
  
  
 ---------------------------------------------------------------
 Warning -- This program may not be used in any manner that
 competes with the business of Gaussian, Inc. or will provide
 assistance to any competitor of Gaussian, Inc.  The licensee
 of this program is prohibited from giving any competitor of
 Gaussian, Inc. access to this program.  By using this program,
 the user acknowledges that Gaussian, Inc. is engaged in the
 business of creating and licensing software in the field of
 computational chemistry and represents and warrants to the
 licensee that it is not a competitor of Gaussian, Inc. and that
 it will not use this program in any manner prohibited above.
 ---------------------------------------------------------------
  

 Cite this work as:
 Gaussian 16, Revision C.01,
 M. J. Frisch, G. W. Trucks, H. B. Schlegel, G. E. Scuseria, 
 M. A. Robb, J. R. Cheeseman, G. Scalmani, V. Barone, 
 G. A. Petersson, H. Nakatsuji, X. Li, M. Caricato, A. V. Marenich, 
 J. Bloino, B. G. Janesko, R. Gomperts, B. Mennucci, H. P. Hratchian, 
 J. V. Ortiz, A. F. Izmaylov, J. L. Sonnenberg, D. Williams-Young, 
 F. Ding, F. Lipparini, F. Egidi, J. Goings, B. Peng, A. Petrone, 
 T. Henderson, D. Ranasinghe, V. G. Zakrzewski, J. Gao, N. Rega, 
 G. Zheng, W. Liang, M. Hada, M. Ehara, K. Toyota, R. Fukuda, 
 J. Hasegawa, M. Ishida, T. Nakajima, Y. Honda, O. Kitao, H. Nakai, 
 T. Vreven, K. Throssell, J. A. Montgomery, Jr., J. E. Peralta, 
 F. Ogliaro, M. J. Bearpark, J. J. Heyd, E. N. Brothers, K. N. Kudin, 
 V. N. Staroverov, T. A. Keith, R. Kobayashi, J. Normand, 
 K. Raghavachari, A. P. Rendell, J. C. Burant, S. S. Iyengar, 
 J. Tomasi, M. Cossi, J. M. Millam, M. Klene, C. Adamo, R. Cammi, 
 J. W. Ochterski, R. L. Martin, K. Morokuma, O. Farkas, 
 J. B. Foresman, and D. J. Fox, Gaussian, Inc., Wallingford CT, 2019.
 
 ******************************************
 Gaussian 16:  EM64L-G16RevC.01  3-Jul-2019
                 7-Dec-2023 
 ******************************************
 %nproc=26
 Will use up to   26 processors via shared memory.
 %mem=16GB
 %chk=/home/exlonk/in_progress/3413.chk
 ------------------------------
 #p MN15/6-311++G(d,p) opt freq
 ------------------------------
 1/18=20,19=15,26=3,38=1/1,3;
 2/9=110,12=2,17=6,18=5,40=1/2;
 3/5=4,6=6,7=1111,11=2,25=1,30=1,71=1,74=-73/1,2,3;
 4//1;
 5/5=2,38=5/2;
 6/7=2,8=2,9=2,10=2,28=1/1;
 7//1,2,3,16;
 1/18=20,19=15,26=3/3(2);
 2/9=110/2;
 99//99;
 2/9=110/2;
 3/5=4,6=6,7=1111,11=2,25=1,30=1,71=1,74=-73/1,2,3;
 4/5=5,16=3,69=1/1;
 5/5=2,38=5/2;
 7//1,2,3,16;
 1/18=20,19=15,26=3/3(-5);
 2/9=110/2;
 6/7=2,8=2,9=2,10=2,19=2,28=1/1;
 99/9=1/99;
 Leave Link    1 at Thu Dec  7 12:31:17 2023, MaxMem=  2147483648 cpu:               3.3 elap:               0.1
 (Enter /opt/gaussian/g16-c01/g16/l101.exe)
 ---------------
 name file: 3413
 ---------------
 Symbolic Z-matrix:
 Charge =  0 Multiplicity = 1
 N                     2.9637   -0.0005   -0.0027 
 N                    -2.6193   -0.0004    0.0011 
 C                     1.5533   -0.0003   -0.0023 
 C                     3.7012    1.1875    0.3599 
 C                     3.7013   -1.19     -0.3591 
 C                    -1.2364   -0.0002   -0.0003 
 C                     0.8562    1.1551    0.3506 
 C                     0.8557   -1.1556   -0.3542 
 C                    -0.5387    1.1552    0.3518 
 C                    -0.5392   -1.1557   -0.3533 
 C                     3.8073    2.1516   -0.8036 
 C                     3.8081   -2.1477    0.8095 
 C                    -3.4213   -1.0705   -0.3275 
 C                    -3.4208    1.0706    0.3288 
 C                    -4.7358   -0.6768   -0.2071 
 C                    -4.7354    0.6777    0.2083 
 H                     3.2953    1.6781    1.2521 
 H                     4.7221    0.9114    0.6567 
 H                     3.2956   -1.6856   -1.2486 
 H                     4.7219   -0.9148   -0.6578 
 H                     1.3391    2.0837    0.6341 
 H                     1.3382   -2.0844   -0.6376 
 H                    -1.0193    2.0847    0.6358 
 H                    -1.0203   -2.0853   -0.6361 
 H                     4.3009    1.6772   -1.6589 
 H                     2.8319    2.5086   -1.1459 
 H                     4.401     3.0254   -0.5166 
 H                     4.3009   -1.6687    1.6627 
 H                     2.8327   -2.5038    1.1529 
 H                     4.4027   -3.0226    0.5272 
 H                    -3.0406   -2.0368   -0.6241 
 H                    -3.0394    2.0368    0.6251 
 H                    -5.5994   -1.2982   -0.398 
 H                    -5.5987    1.2996    0.3987 
 
 ITRead=  0  0  0  0  0  0  0  0  0  0  0  0  0  0  0  0  0  0  0  0
 ITRead=  0  0  0  0  0  0  0  0  0  0  0  0  0  0
 MicOpt= -1 -1 -1 -1 -1 -1 -1 -1 -1 -1 -1 -1 -1 -1 -1 -1 -1 -1 -1 -1
 MicOpt= -1 -1 -1 -1 -1 -1 -1 -1 -1 -1 -1 -1 -1 -1
 NAtoms=     34 NQM=       34 NQMF=       0 NMMI=      0 NMMIF=      0
                NMic=       0 NMicF=      0.
                    Isotopes and Nuclear Properties:
 (Nuclear quadrupole moments (NQMom) in fm**2, nuclear magnetic moments (NMagM)
  in nuclear magnetons)

  Atom         1           2           3           4           5           6           7           8           9          10
 IAtWgt=          14          14          12          12          12          12          12          12          12          12
 AtmWgt=  14.0030740  14.0030740  12.0000000  12.0000000  12.0000000  12.0000000  12.0000000  12.0000000  12.0000000  12.0000000
 NucSpn=           2           2           0           0           0           0           0           0           0           0
 AtZEff=  -0.0000000  -0.0000000  -0.0000000  -0.0000000  -0.0000000  -0.0000000  -0.0000000  -0.0000000  -0.0000000  -0.0000000
 NQMom=    2.0440000   2.0440000   0.0000000   0.0000000   0.0000000   0.0000000   0.0000000   0.0000000   0.0000000   0.0000000
 NMagM=    0.4037610   0.4037610   0.0000000   0.0000000   0.0000000   0.0000000   0.0000000   0.0000000   0.0000000   0.0000000
 AtZNuc=   7.0000000   7.0000000   6.0000000   6.0000000   6.0000000   6.0000000   6.0000000   6.0000000   6.0000000   6.0000000

  Atom        11          12          13          14          15          16          17          18          19          20
 IAtWgt=          12          12          12          12          12          12           1           1           1           1
 AtmWgt=  12.0000000  12.0000000  12.0000000  12.0000000  12.0000000  12.0000000   1.0078250   1.0078250   1.0078250   1.0078250
 NucSpn=           0           0           0           0           0           0           1           1           1           1
 AtZEff=  -0.0000000  -0.0000000  -0.0000000  -0.0000000  -0.0000000  -0.0000000  -0.0000000  -0.0000000  -0.0000000  -0.0000000
 NQMom=    0.0000000   0.0000000   0.0000000   0.0000000   0.0000000   0.0000000   0.0000000   0.0000000   0.0000000   0.0000000
 NMagM=    0.0000000   0.0000000   0.0000000   0.0000000   0.0000000   0.0000000   2.7928460   2.7928460   2.7928460   2.7928460
 AtZNuc=   6.0000000   6.0000000   6.0000000   6.0000000   6.0000000   6.0000000   1.0000000   1.0000000   1.0000000   1.0000000

  Atom        21          22          23          24          25          26          27          28          29          30
 IAtWgt=           1           1           1           1           1           1           1           1           1           1
 AtmWgt=   1.0078250   1.0078250   1.0078250   1.0078250   1.0078250   1.0078250   1.0078250   1.0078250   1.0078250   1.0078250
 NucSpn=           1           1           1           1           1           1           1           1           1           1
 AtZEff=  -0.0000000  -0.0000000  -0.0000000  -0.0000000  -0.0000000  -0.0000000  -0.0000000  -0.0000000  -0.0000000  -0.0000000
 NQMom=    0.0000000   0.0000000   0.0000000   0.0000000   0.0000000   0.0000000   0.0000000   0.0000000   0.0000000   0.0000000
 NMagM=    2.7928460   2.7928460   2.7928460   2.7928460   2.7928460   2.7928460   2.7928460   2.7928460   2.7928460   2.7928460
 AtZNuc=   1.0000000   1.0000000   1.0000000   1.0000000   1.0000000   1.0000000   1.0000000   1.0000000   1.0000000   1.0000000

  Atom        31          32          33          34
 IAtWgt=           1           1           1           1
 AtmWgt=   1.0078250   1.0078250   1.0078250   1.0078250
 NucSpn=           1           1           1           1
 AtZEff=  -0.0000000  -0.0000000  -0.0000000  -0.0000000
 NQMom=    0.0000000   0.0000000   0.0000000   0.0000000
 NMagM=    2.7928460   2.7928460   2.7928460   2.7928460
 AtZNuc=   1.0000000   1.0000000   1.0000000   1.0000000
 Leave Link  101 at Thu Dec  7 12:31:18 2023, MaxMem=  2147483648 cpu:               7.8 elap:               0.3
 (Enter /opt/gaussian/g16-c01/g16/l103.exe)

 GradGradGradGradGradGradGradGradGradGradGradGradGradGradGradGradGradGrad
 Berny optimization.
 Initialization pass.
                           ----------------------------
                           !    Initial Parameters    !
                           ! (Angstroms and Degrees)  !
 --------------------------                            --------------------------
 ! Name  Definition              Value          Derivative Info.                !
 --------------------------------------------------------------------------------
 ! R1    R(1,3)                  1.4104         estimate D2E/DX2                !
 ! R2    R(1,4)                  1.4446         estimate D2E/DX2                !
 ! R3    R(1,5)                  1.4443         estimate D2E/DX2                !
 ! R4    R(2,6)                  1.3829         estimate D2E/DX2                !
 ! R5    R(2,13)                 1.3771         estimate D2E/DX2                !
 ! R6    R(2,14)                 1.3773         estimate D2E/DX2                !
 ! R7    R(3,7)                  1.3948         estimate D2E/DX2                !
 ! R8    R(3,8)                  1.3947         estimate D2E/DX2                !
 ! R9    R(4,11)                 1.5148         estimate D2E/DX2                !
 ! R10   R(4,17)                 1.0961         estimate D2E/DX2                !
 ! R11   R(4,18)                 1.0984         estimate D2E/DX2                !
 ! R12   R(5,12)                 1.5147         estimate D2E/DX2                !
 ! R13   R(5,19)                 1.0961         estimate D2E/DX2                !
 ! R14   R(5,20)                 1.0984         estimate D2E/DX2                !
 ! R15   R(6,9)                  1.3949         estimate D2E/DX2                !
 ! R16   R(6,10)                 1.3949         estimate D2E/DX2                !
 ! R17   R(7,9)                  1.3949         estimate D2E/DX2                !
 ! R18   R(7,21)                 1.0844         estimate D2E/DX2                !
 ! R19   R(8,10)                 1.3949         estimate D2E/DX2                !
 ! R20   R(8,22)                 1.0843         estimate D2E/DX2                !
 ! R21   R(9,23)                 1.0843         estimate D2E/DX2                !
 ! R22   R(10,24)                1.0842         estimate D2E/DX2                !
 ! R23   R(11,25)                1.0956         estimate D2E/DX2                !
 ! R24   R(11,26)                1.0936         estimate D2E/DX2                !
 ! R25   R(11,27)                1.0947         estimate D2E/DX2                !
 ! R26   R(12,28)                1.0956         estimate D2E/DX2                !
 ! R27   R(12,29)                1.0937         estimate D2E/DX2                !
 ! R28   R(12,30)                1.0948         estimate D2E/DX2                !
 ! R29   R(13,15)                1.3775         estimate D2E/DX2                !
 ! R30   R(13,31)                1.0801         estimate D2E/DX2                !
 ! R31   R(14,16)                1.3773         estimate D2E/DX2                !
 ! R32   R(14,32)                1.0802         estimate D2E/DX2                !
 ! R33   R(15,16)                1.4168         estimate D2E/DX2                !
 ! R34   R(15,33)                1.0809         estimate D2E/DX2                !
 ! R35   R(16,34)                1.0809         estimate D2E/DX2                !
 ! A1    A(3,1,4)              120.6872         estimate D2E/DX2                !
 ! A2    A(3,1,5)              120.7229         estimate D2E/DX2                !
 ! A3    A(4,1,5)              118.5892         estimate D2E/DX2                !
 ! A4    A(6,2,13)             125.6104         estimate D2E/DX2                !
 ! A5    A(6,2,14)             125.5972         estimate D2E/DX2                !
 ! A6    A(13,2,14)            108.7923         estimate D2E/DX2                !
 ! A7    A(1,3,7)              119.9986         estimate D2E/DX2                !
 ! A8    A(1,3,8)              119.9993         estimate D2E/DX2                !
 ! A9    A(7,3,8)              120.0022         estimate D2E/DX2                !
 ! A10   A(1,4,11)             111.4932         estimate D2E/DX2                !
 ! A11   A(1,4,17)             112.5413         estimate D2E/DX2                !
 ! A12   A(1,4,18)             109.6096         estimate D2E/DX2                !
 ! A13   A(11,4,17)            111.4865         estimate D2E/DX2                !
 ! A14   A(11,4,18)            107.6035         estimate D2E/DX2                !
 ! A15   A(17,4,18)            103.694          estimate D2E/DX2                !
 ! A16   A(1,5,12)             111.4916         estimate D2E/DX2                !
 ! A17   A(1,5,19)             112.5576         estimate D2E/DX2                !
 ! A18   A(1,5,20)             109.5891         estimate D2E/DX2                !
 ! A19   A(12,5,19)            111.4885         estimate D2E/DX2                !
 ! A20   A(12,5,20)            107.6196         estimate D2E/DX2                !
 ! A21   A(19,5,20)            103.6804         estimate D2E/DX2                !
 ! A22   A(2,6,9)              120.0032         estimate D2E/DX2                !
 ! A23   A(2,6,10)             119.996          estimate D2E/DX2                !
 ! A24   A(9,6,10)             120.0008         estimate D2E/DX2                !
 ! A25   A(3,7,9)              120.0044         estimate D2E/DX2                !
 ! A26   A(3,7,21)             123.5697         estimate D2E/DX2                !
 ! A27   A(9,7,21)             116.4259         estimate D2E/DX2                !
 ! A28   A(3,8,10)             120.0049         estimate D2E/DX2                !
 ! A29   A(3,8,22)             123.5667         estimate D2E/DX2                !
 ! A30   A(10,8,22)            116.4284         estimate D2E/DX2                !
 ! A31   A(6,9,7)              119.9939         estimate D2E/DX2                !
 ! A32   A(6,9,23)             123.6761         estimate D2E/DX2                !
 ! A33   A(7,9,23)             116.3301         estimate D2E/DX2                !
 ! A34   A(6,10,8)             119.9939         estimate D2E/DX2                !
 ! A35   A(6,10,24)            123.6716         estimate D2E/DX2                !
 ! A36   A(8,10,24)            116.3345         estimate D2E/DX2                !
 ! A37   A(4,11,25)            110.8313         estimate D2E/DX2                !
 ! A38   A(4,11,26)            112.6879         estimate D2E/DX2                !
 ! A39   A(4,11,27)            110.1603         estimate D2E/DX2                !
 ! A40   A(25,11,26)           107.388          estimate D2E/DX2                !
 ! A41   A(25,11,27)           107.8165         estimate D2E/DX2                !
 ! A42   A(26,11,27)           107.7704         estimate D2E/DX2                !
 ! A43   A(5,12,28)            110.8619         estimate D2E/DX2                !
 ! A44   A(5,12,29)            112.6582         estimate D2E/DX2                !
 ! A45   A(5,12,30)            110.1588         estimate D2E/DX2                !
 ! A46   A(28,12,29)           107.3977         estimate D2E/DX2                !
 ! A47   A(28,12,30)           107.8123         estimate D2E/DX2                !
 ! A48   A(29,12,30)           107.7658         estimate D2E/DX2                !
 ! A49   A(2,13,15)            108.2291         estimate D2E/DX2                !
 ! A50   A(2,13,31)            123.7424         estimate D2E/DX2                !
 ! A51   A(15,13,31)           128.0285         estimate D2E/DX2                !
 ! A52   A(2,14,16)            108.2282         estimate D2E/DX2                !
 ! A53   A(2,14,32)            123.7356         estimate D2E/DX2                !
 ! A54   A(16,14,32)           128.0363         estimate D2E/DX2                !
 ! A55   A(13,15,16)           107.3743         estimate D2E/DX2                !
 ! A56   A(13,15,33)           125.6395         estimate D2E/DX2                !
 ! A57   A(16,15,33)           126.9862         estimate D2E/DX2                !
 ! A58   A(14,16,15)           107.3762         estimate D2E/DX2                !
 ! A59   A(14,16,34)           125.6463         estimate D2E/DX2                !
 ! A60   A(15,16,34)           126.9775         estimate D2E/DX2                !
 ! D1    D(4,1,3,7)              0.0041         estimate D2E/DX2                !
 ! D2    D(4,1,3,8)           -179.9672         estimate D2E/DX2                !
 ! D3    D(5,1,3,7)            179.6946         estimate D2E/DX2                !
 ! D4    D(5,1,3,8)             -0.2767         estimate D2E/DX2                !
 ! D5    D(3,1,4,11)           -81.6054         estimate D2E/DX2                !
 ! D6    D(3,1,4,17)            44.5273         estimate D2E/DX2                !
 ! D7    D(3,1,4,18)           159.3603         estimate D2E/DX2                !
 ! D8    D(5,1,4,11)            98.6976         estimate D2E/DX2                !
 ! D9    D(5,1,4,17)          -135.1697         estimate D2E/DX2                !
 ! D10   D(5,1,4,18)           -20.3367         estimate D2E/DX2                !
 ! D11   D(3,1,5,12)           -81.6043         estimate D2E/DX2                !
 ! D12   D(3,1,5,19)            44.5427         estimate D2E/DX2                !
 ! D13   D(3,1,5,20)           159.3557         estimate D2E/DX2                !
 ! D14   D(4,1,5,12)            98.0926         estimate D2E/DX2                !
 ! D15   D(4,1,5,19)          -135.7604         estimate D2E/DX2                !
 ! D16   D(4,1,5,20)           -20.9474         estimate D2E/DX2                !
 ! D17   D(13,2,6,9)           179.8698         estimate D2E/DX2                !
 ! D18   D(13,2,6,10)           -0.1576         estimate D2E/DX2                !
 ! D19   D(14,2,6,9)             0.0103         estimate D2E/DX2                !
 ! D20   D(14,2,6,10)          179.9829         estimate D2E/DX2                !
 ! D21   D(6,2,13,15)         -179.9081         estimate D2E/DX2                !
 ! D22   D(6,2,13,31)            0.0789         estimate D2E/DX2                !
 ! D23   D(14,2,13,15)          -0.0287         estimate D2E/DX2                !
 ! D24   D(14,2,13,31)         179.9582         estimate D2E/DX2                !
 ! D25   D(6,2,14,16)          179.917          estimate D2E/DX2                !
 ! D26   D(6,2,14,32)           -0.1118         estimate D2E/DX2                !
 ! D27   D(13,2,14,16)           0.0376         estimate D2E/DX2                !
 ! D28   D(13,2,14,32)        -179.9912         estimate D2E/DX2                !
 ! D29   D(1,3,7,9)           -179.9622         estimate D2E/DX2                !
 ! D30   D(1,3,7,21)            -0.0075         estimate D2E/DX2                !
 ! D31   D(8,3,7,9)              0.0091         estimate D2E/DX2                !
 ! D32   D(8,3,7,21)           179.9637         estimate D2E/DX2                !
 ! D33   D(1,3,8,10)           179.973          estimate D2E/DX2                !
 ! D34   D(1,3,8,22)            -0.0146         estimate D2E/DX2                !
 ! D35   D(7,3,8,10)             0.0018         estimate D2E/DX2                !
 ! D36   D(7,3,8,22)          -179.9858         estimate D2E/DX2                !
 ! D37   D(1,4,11,25)          -58.6566         estimate D2E/DX2                !
 ! D38   D(1,4,11,26)           61.7163         estimate D2E/DX2                !
 ! D39   D(1,4,11,27)         -177.894          estimate D2E/DX2                !
 ! D40   D(17,4,11,25)         174.6327         estimate D2E/DX2                !
 ! D41   D(17,4,11,26)         -64.9944         estimate D2E/DX2                !
 ! D42   D(17,4,11,27)          55.3952         estimate D2E/DX2                !
 ! D43   D(18,4,11,25)          61.5653         estimate D2E/DX2                !
 ! D44   D(18,4,11,26)        -178.0618         estimate D2E/DX2                !
 ! D45   D(18,4,11,27)         -57.6721         estimate D2E/DX2                !
 ! D46   D(1,5,12,28)          -58.5993         estimate D2E/DX2                !
 ! D47   D(1,5,12,29)           61.7873         estimate D2E/DX2                !
 ! D48   D(1,5,12,30)         -177.8498         estimate D2E/DX2                !
 ! D49   D(19,5,12,28)         174.668          estimate D2E/DX2                !
 ! D50   D(19,5,12,29)         -64.9454         estimate D2E/DX2                !
 ! D51   D(19,5,12,30)          55.4174         estimate D2E/DX2                !
 ! D52   D(20,5,12,28)          61.6068         estimate D2E/DX2                !
 ! D53   D(20,5,12,29)        -178.0066         estimate D2E/DX2                !
 ! D54   D(20,5,12,30)         -57.6438         estimate D2E/DX2                !
 ! D55   D(2,6,9,7)            179.9862         estimate D2E/DX2                !
 ! D56   D(2,6,9,23)            -0.0218         estimate D2E/DX2                !
 ! D57   D(10,6,9,7)             0.0136         estimate D2E/DX2                !
 ! D58   D(10,6,9,23)         -179.9944         estimate D2E/DX2                !
 ! D59   D(2,6,10,8)          -179.9754         estimate D2E/DX2                !
 ! D60   D(2,6,10,24)           -0.0053         estimate D2E/DX2                !
 ! D61   D(9,6,10,8)            -0.0028         estimate D2E/DX2                !
 ! D62   D(9,6,10,24)          179.9673         estimate D2E/DX2                !
 ! D63   D(3,7,9,6)             -0.0168         estimate D2E/DX2                !
 ! D64   D(3,7,9,23)           179.9907         estimate D2E/DX2                !
 ! D65   D(21,7,9,6)          -179.9746         estimate D2E/DX2                !
 ! D66   D(21,7,9,23)            0.0329         estimate D2E/DX2                !
 ! D67   D(3,8,10,6)            -0.0049         estimate D2E/DX2                !
 ! D68   D(3,8,10,24)         -179.9771         estimate D2E/DX2                !
 ! D69   D(22,8,10,6)          179.9835         estimate D2E/DX2                !
 ! D70   D(22,8,10,24)           0.0113         estimate D2E/DX2                !
 ! D71   D(2,13,15,16)           0.0089         estimate D2E/DX2                !
 ! D72   D(2,13,15,33)        -179.9976         estimate D2E/DX2                !
 ! D73   D(31,13,15,16)       -179.9773         estimate D2E/DX2                !
 ! D74   D(31,13,15,33)          0.0162         estimate D2E/DX2                !
 ! D75   D(2,14,16,15)          -0.0315         estimate D2E/DX2                !
 ! D76   D(2,14,16,34)         179.9886         estimate D2E/DX2                !
 ! D77   D(32,14,16,15)        179.9989         estimate D2E/DX2                !
 ! D78   D(32,14,16,34)          0.019          estimate D2E/DX2                !
 ! D79   D(13,15,16,14)          0.014          estimate D2E/DX2                !
 ! D80   D(13,15,16,34)        179.9936         estimate D2E/DX2                !
 ! D81   D(33,15,16,14)       -179.9794         estimate D2E/DX2                !
 ! D82   D(33,15,16,34)          0.0002         estimate D2E/DX2                !
 --------------------------------------------------------------------------------
 Trust Radius=3.00D-01 FncErr=1.00D-07 GrdErr=1.00D-06 EigMax=2.50D+02 EigMin=1.00D-04
 Number of steps in this run=    187 maximum allowed number of steps=    204.
 GradGradGradGradGradGradGradGradGradGradGradGradGradGradGradGradGradGrad

 Leave Link  103 at Thu Dec  7 12:31:18 2023, MaxMem=  2147483648 cpu:               0.6 elap:               0.0
 (Enter /opt/gaussian/g16-c01/g16/l202.exe)
                          Input orientation:                          
 ---------------------------------------------------------------------
 Center     Atomic      Atomic             Coordinates (Angstroms)
 Number     Number       Type             X           Y           Z
 ---------------------------------------------------------------------
      1          7           0        2.963700   -0.000500   -0.002700
      2          7           0       -2.619300   -0.000400    0.001100
      3          6           0        1.553300   -0.000300   -0.002300
      4          6           0        3.701200    1.187500    0.359900
      5          6           0        3.701300   -1.190000   -0.359100
      6          6           0       -1.236400   -0.000200   -0.000300
      7          6           0        0.856200    1.155100    0.350600
      8          6           0        0.855700   -1.155600   -0.354200
      9          6           0       -0.538700    1.155200    0.351800
     10          6           0       -0.539200   -1.155700   -0.353300
     11          6           0        3.807300    2.151600   -0.803600
     12          6           0        3.808100   -2.147700    0.809500
     13          6           0       -3.421300   -1.070500   -0.327500
     14          6           0       -3.420800    1.070600    0.328800
     15          6           0       -4.735800   -0.676800   -0.207100
     16          6           0       -4.735400    0.677700    0.208300
     17          1           0        3.295300    1.678100    1.252100
     18          1           0        4.722100    0.911400    0.656700
     19          1           0        3.295600   -1.685600   -1.248600
     20          1           0        4.721900   -0.914800   -0.657800
     21          1           0        1.339100    2.083700    0.634100
     22          1           0        1.338200   -2.084400   -0.637600
     23          1           0       -1.019300    2.084700    0.635800
     24          1           0       -1.020300   -2.085300   -0.636100
     25          1           0        4.300900    1.677200   -1.658900
     26          1           0        2.831900    2.508600   -1.145900
     27          1           0        4.401000    3.025400   -0.516600
     28          1           0        4.300900   -1.668700    1.662700
     29          1           0        2.832700   -2.503800    1.152900
     30          1           0        4.402700   -3.022600    0.527200
     31          1           0       -3.040600   -2.036800   -0.624100
     32          1           0       -3.039400    2.036800    0.625100
     33          1           0       -5.599400   -1.298200   -0.398000
     34          1           0       -5.598700    1.299600    0.398700
 ---------------------------------------------------------------------
                    Distance matrix (angstroms):
                    1          2          3          4          5
     1  N    0.000000
     2  N    5.583001   0.000000
     3  C    1.410400   4.172601   0.000000
     4  C    1.444551   6.441162   2.481034   0.000000
     5  C    1.444294   6.441652   2.481249   2.483841   0.000000
     6  C    4.200101   1.382901   2.789701   5.091195   5.091684
     7  C    2.429360   3.679189   1.394789   2.845200   3.754699
     8  C    2.429295   3.679178   1.394703   3.754587   2.845812
     9  C    3.705148   2.405680   2.415995   4.240031   4.897238
    10  C    3.705093   2.405646   2.415928   4.896962   4.240643
    11  C    2.446352   6.824942   3.217650   1.514754   3.372700
    12  C    2.446047   6.824652   3.217836   3.367065   1.514669
    13  C    6.482177   1.377061   5.098797   7.503405   7.123672
    14  C    6.482205   1.377255   5.098836   7.123027   7.503854
    15  C    7.731847   2.231689   6.328695   8.659103   8.454060
    16  C    7.731793   2.231733   6.328648   8.453348   8.659570
    17  H    2.121834   6.274142   2.724905   1.096113   3.314634
    18  H    2.087664   7.426799   3.362554   1.098434   2.547502
    19  H    2.121788   6.275961   2.725639   3.317603   1.096094
    20  H    2.087191   7.427213   3.362442   2.548962   1.098445
    21  H    2.718222   4.518085   2.189507   2.541235   4.157349
    22  H    2.718085   4.518053   2.189371   4.157416   2.541998
    23  H    4.540928   2.703791   3.372339   4.812921   5.830742
    24  H    4.540908   2.703633   3.372291   5.830592   4.813709
    25  H    2.710310   7.311574   3.620447   2.162175   3.204658
    26  H    2.760409   6.109523   3.039279   2.183672   3.880020
    27  H    3.389099   7.662121   4.186736   2.153102   4.275977
    28  H    2.710083   7.309809   3.620095   3.196061   2.162487
    29  H    2.760269   6.108843   3.039550   3.874124   2.183273
    30  H    3.388894   7.662830   4.187332   4.271421   2.153117
    31  H    6.370579   2.171473   5.063387   7.537654   6.800038
    32  H    6.370395   2.171645   5.063230   6.799068   7.537767
    33  H    8.669889   3.274838   7.280264   9.656825   9.301411
    34  H    8.669837   3.274891   7.280223   9.300657   9.657244
                    6          7          8          9         10
     6  C    0.000000
     7  C    2.415952   0.000000
     8  C    2.416004   2.415798   0.000000
     9  C    1.394887   1.394901   2.789728   0.000000
    10  C    1.394947   2.789698   1.394900   2.416076   0.000000
    11  C    5.542061   3.321774   4.455499   4.606026   5.480243
    12  C    5.542068   4.453402   3.324925   5.478440   4.608165
    13  C    2.454871   4.869304   4.277930   3.704669   2.883474
    14  C    2.454898   4.277890   4.869385   2.883433   3.704766
    15  C    3.570204   5.910783   5.613890   4.613485   4.226366
    16  C    3.570163   5.613747   5.910820   4.226215   4.613550
    17  H    4.992144   2.652440   4.069607   3.972848   5.031016
    18  H    6.063529   3.885649   4.499273   5.275265   5.742324
    19  H    4.993781   4.071571   2.652162   5.033218   3.973418
    20  H    6.063839   4.499444   3.885571   5.742657   5.275408
    21  H    3.373174   1.084372   3.421034   2.113750   3.872555
    22  H    3.373219   3.420997   1.084339   3.872554   2.113750
    23  H    2.190562   2.112580   3.872373   1.084252   3.421843
    24  H    2.190567   3.872341   2.112625   3.421801   1.084246
    25  H    6.018830   4.022019   4.647193   5.266605   5.758167
    26  H    4.915032   2.823980   4.237749   3.928835   5.041788
    27  H    6.418808   4.100691   5.484185   5.352794   6.474090
    28  H    6.017570   4.643427   4.024992   5.754528   5.268206
    29  H    4.914820   4.235302   2.827989   5.039482   3.931377
    30  H    6.419705   5.482885   4.104115   6.473192   5.355649
    31  H    2.791416   5.130625   4.003812   4.171420   2.665834
    32  H    2.791291   4.003554   5.130521   2.665598   4.171369
    33  H    4.569326   6.946499   6.456823   5.673804   5.062403
    34  H    4.569282   6.456696   6.946520   5.062277   5.673847
                   11         12         13         14         15
    11  C    0.000000
    12  C    4.591957   0.000000
    13  C    7.928509   7.397118   0.000000
    14  C    7.395696   7.927517   2.239428   0.000000
    15  C    9.018881   8.728989   1.377464   2.251626   0.000000
    16  C    8.727774   9.018632   2.251698   1.377339   1.416767
    17  H    2.170771   3.885306   7.427157   6.806434   8.495492
    18  H    2.123071   3.196379   8.438693   8.151054   9.629143
    19  H    3.896661   2.170707   6.807607   7.429324   8.161237
    20  H    3.203211   2.123215   8.151383   8.439121   9.471424
    21  H    2.857202   4.902191   5.790946   4.876087   6.725503
    22  H    4.905885   2.863304   4.876166   5.791031   6.249812
    23  H    5.037104   6.422396   4.080789   2.624852   4.706244
    24  H    6.425348   5.040546   2.624853   4.080826   3.996605
    25  H    1.095552   4.578833   8.303906   7.996472   9.450449
    26  H    1.093629   5.143703   7.251362   6.583224   8.264273
    27  H    1.094703   5.373177   8.831791   8.106571   9.863224
    28  H    4.573945   1.095556   7.996944   8.301066   9.281270
    29  H    5.143004   1.093680   6.584713   7.249947   7.903779
    30  H    5.375674   1.094848   8.109019   8.831806   9.463306
    31  H    8.029237   6.998014   1.080111   3.272385   2.212960
    32  H    6.995117   8.026973   3.272401   1.080186   3.306653
    33  H   10.027544   9.522645   2.191104   3.299356   1.080919
    34  H    9.520728  10.026990   3.299365   2.191022   2.240033
                   16         17         18         19         20
    16  C    0.000000
    17  H    8.159808   0.000000
    18  H    9.471008   1.725714   0.000000
    19  H    8.497335   4.191417   3.522709   0.000000
    20  H    9.629471   3.522220   2.250093   1.725546   0.000000
    21  H    6.249615   2.091209   3.580431   4.645436   4.701419
    22  H    6.725575   4.643018   4.701150   2.088966   3.580195
    23  H    3.996474   4.377319   5.860098   6.031956   6.605436
    24  H    4.706288   6.029335   6.605051   4.377432   5.860324
    25  H    9.281172   3.079798   2.475048   3.533751   2.810321
    26  H    7.902536   2.579704   3.061580   4.221004   3.940813
    27  H    9.461024   2.483161   2.439003   4.894002   3.955767
    28  H    9.448576   3.518649   2.801136   3.080029   2.475950
    29  H    8.263797   4.208578   3.934417   2.578940   3.061475
    30  H    9.864015   4.883482   3.949069   2.483285   2.439044
    31  H    3.306622   7.580517   8.401895   6.376580   7.843241
    32  H    2.212982   6.375752   7.842729   7.582825   8.402116
    33  H    2.240151   9.523491  10.607926   8.943971  10.331686
    34  H    1.080879   8.942863  10.331320   9.525418  10.608230
                   21         22         23         24         25
    21  H    0.000000
    22  H    4.357784   0.000000
    23  H    2.358401   4.955880   0.000000
    24  H    4.955879   2.358501   4.359659   0.000000
    25  H    3.767672   4.895945   5.808290   6.596794   0.000000
    26  H    2.361650   4.856455   4.264491   6.016914   1.764187
    27  H    3.403842   5.958644   5.620729   7.451445   1.769891
    28  H    4.889865   3.773828   6.591439   5.811472   4.714666
    29  H    4.852335   2.369666   6.013288   4.268638   5.248104
    30  H    5.955785   3.410006   7.449456   5.625009   5.184353
    31  H    6.143562   4.379080   4.760227   2.020918   8.292299
    32  H    4.378760   6.143459   2.020696   4.760157   7.695841
    33  H    7.787507   6.986116   5.787061   4.652352  10.414356
    34  H    6.985935   7.787551   4.652258   5.787064  10.118220
                   26         27         28         29         30
    26  H    0.000000
    27  H    1.767817   0.000000
    28  H    5.243666   5.176287   0.000000
    29  H    5.514403   5.984885   1.764341   0.000000
    30  H    5.988393   6.137412   1.769963   1.767924   0.000000
    31  H    7.444407   9.000824   7.698219   6.153980   7.596052
    32  H    6.150707   7.592125   8.287783   7.441584   8.999554
    33  H    9.281051  10.895668  10.119273   8.657891  10.191740
    34  H    8.655778  10.188727  10.412040   9.280257  10.896143
                   31         32         33         34
    31  H    0.000000
    32  H    4.260835   0.000000
    33  H    2.672847   4.326957   0.000000
    34  H    4.326842   2.672964   2.717222   0.000000
 Stoichiometry    C14H18N2
 Framework group  C1[X(C14H18N2)]
 Deg. of freedom    96
 Full point group                 C1      NOp   1
 Largest Abelian subgroup         C1      NOp   1
 Largest concise Abelian subgroup C1      NOp   1
                         Standard orientation:                         
 ---------------------------------------------------------------------
 Center     Atomic      Atomic             Coordinates (Angstroms)
 Number     Number       Type             X           Y           Z
 ---------------------------------------------------------------------
      1          7           0        2.767076   -0.000576   -0.003039
      2          7           0       -2.815924   -0.000397    0.001104
      3          6           0        1.356676   -0.000355   -0.002552
      4          6           0        3.504616    1.187007    0.360844
      5          6           0        3.504636   -1.189687   -0.360814
      6          6           0       -1.433024   -0.000216   -0.000380
      7          6           0        0.659615    1.154660    0.351683
      8          6           0        0.659037   -1.155251   -0.355701
      9          6           0       -0.735285    1.154779    0.352969
     10          6           0       -0.735863   -1.155331   -0.354715
     11          6           0        3.610658    2.152406   -0.801583
     12          6           0        3.611494   -2.148695    0.806708
     13          6           0       -3.617960   -1.070117   -0.328643
     14          6           0       -3.617388    1.070247    0.330051
     15          6           0       -4.932447   -0.676533   -0.207722
     16          6           0       -4.932001    0.677502    0.209192
     17          1           0        3.098778    1.676615    1.253617
     18          1           0        4.525530    0.910560    0.657273
     19          1           0        3.098874   -1.684286   -1.250843
     20          1           0        4.525222   -0.914168   -0.659269
     21          1           0        1.142546    2.082935    0.636192
     22          1           0        1.141506   -2.083740   -0.640169
     23          1           0       -1.215854    2.083968    0.638038
     24          1           0       -1.216994   -2.084607   -0.638525
     25          1           0        4.104199    1.678956   -1.657443
     26          1           0        2.635243    2.509803   -1.143424
     27          1           0        4.204389    3.025876   -0.513643
     28          1           0        4.104353   -1.670657    1.660413
     29          1           0        2.636109   -2.505164    1.149769
     30          1           0        4.206063   -3.023288    0.523393
     31          1           0       -3.237293   -2.036091   -0.626347
     32          1           0       -3.235956    2.036110    0.627408
     33          1           0       -5.796068   -1.297706   -0.399264
     34          1           0       -5.795280    1.299201    0.400341
 ---------------------------------------------------------------------
 Rotational constants (GHZ):           1.3859887           0.2435643           0.2148803
 Leave Link  202 at Thu Dec  7 12:31:18 2023, MaxMem=  2147483648 cpu:               0.2 elap:               0.0
 (Enter /opt/gaussian/g16-c01/g16/l301.exe)
 Standard basis: 6-311++G(d,p) (5D, 7F)
 Ernie: Thresh=  0.10000D-02 Tol=  0.10000D-05 Strict=F.
 There are   494 symmetry adapted cartesian basis functions of A   symmetry.
 There are   478 symmetry adapted basis functions of A   symmetry.
   478 basis functions,   738 primitive gaussians,   494 cartesian basis functions
    58 alpha electrons       58 beta electrons
       nuclear repulsion energy      1047.3797691378 Hartrees.
 IExCor= 7252 DFT=T Ex+Corr=MN15 ExCW=0 ScaHFX=  0.440000
 ScaDFX=  1.000000  1.000000  1.000000  1.000000 ScalE2=  1.000000  1.000000
 IRadAn=      5 IRanWt=     -1 IRanGd=            0 ICorTp=0 IEmpDi=  4
 NAtoms=   34 NActive=   34 NUniq=   34 SFac= 1.00D+00 NAtFMM=   60 NAOKFM=F Big=F
 Integral buffers will be    131072 words long.
 Raffenetti 2 integral format.
 Two-electron integral symmetry is turned on.
 Leave Link  301 at Thu Dec  7 12:31:18 2023, MaxMem=  2147483648 cpu:               1.9 elap:               0.1
 (Enter /opt/gaussian/g16-c01/g16/l302.exe)
 NPDir=0 NMtPBC=     1 NCelOv=     1 NCel=       1 NClECP=     1 NCelD=      1
         NCelK=      1 NCelE2=     1 NClLst=     1 CellRange=     0.0.
 One-electron integrals computed using PRISM.
 One-electron integral symmetry used in STVInt
 NBasis=   478 RedAO= T EigKep=  1.03D-06  NBF=   478
 NBsUse=   475 1.00D-06 EigRej=  3.74D-07 NBFU=   475
 Precomputing XC quadrature grid using
 IXCGrd= 4 IRadAn=           5 IRanWt=          -1 IRanGd=           0 AccXCQ= 0.00D+00.
 Generated NRdTot=       0 NPtTot=           0 NUsed=           0 NTot=          32
 NSgBfM=   492   492   492   492   492 MxSgAt=    34 MxSgA2=    34.
 Leave Link  302 at Thu Dec  7 12:31:18 2023, MaxMem=  2147483648 cpu:              13.2 elap:               0.5
 (Enter /opt/gaussian/g16-c01/g16/l303.exe)
 DipDrv:  MaxL=1.
 Leave Link  303 at Thu Dec  7 12:31:22 2023, MaxMem=  2147483648 cpu:              79.1 elap:               3.2
 (Enter /opt/gaussian/g16-c01/g16/l401.exe)
 ExpMin= 3.60D-02 ExpMax= 6.29D+03 ExpMxC= 9.49D+02 IAcc=3 IRadAn=         5 AccDes= 0.00D+00
 Harris functional with IExCor= 1009 and IRadAn=       5 diagonalized for initial guess.
 HarFok:  IExCor= 1009 AccDes= 0.00D+00 IRadAn=         5 IDoV= 1 UseB2=F ITyADJ=14
 ICtDFT=  3500011 ScaDFX=  1.000000  1.000000  1.000000  1.000000
 FoFCou: FMM=F IPFlag=           0 FMFlag=      100000 FMFlg1=           0
         NFxFlg=           0 DoJE=T BraDBF=F KetDBF=T FulRan=T
         wScrn=  0.000000 ICntrl=       500 IOpCl=  0 I1Cent=   200000004 NGrid=           0
         NMat0=    1 NMatS0=      1 NMatT0=    0 NMatD0=    1 NMtDS0=    0 NMtDT0=    0
 Petite list used in FoFCou.
 Harris En= -653.427805408500    
 JPrj=0 DoOrth=F DoCkMO=F.
 Leave Link  401 at Thu Dec  7 12:33:36 2023, MaxMem=  2147483648 cpu:            3341.3 elap:             134.6
 (Enter /opt/gaussian/g16-c01/g16/l502.exe)
 Integral symmetry usage will be decided dynamically.
 Closed shell SCF:
 Using DIIS extrapolation, IDIIS=  1040.
 NGot=  2147483648 LenX=  2146977102 LenY=  2146732572
 Requested convergence on RMS density matrix=1.00D-08 within 128 cycles.
 Requested convergence on MAX density matrix=1.00D-06.
 Requested convergence on             energy=1.00D-06.
 No special actions if energy rises.
 Fock matrices will be formed incrementally for  20 cycles.

 Cycle   1  Pass 1  IDiag  1:
 FoFJK:  IHMeth= 1 ICntrl=       0 DoSepK=F KAlg= 0 I1Cent=           0 FoldK=F
 IRaf= 860000000 NMat=       1 IRICut=       1 DoRegI=T DoRafI=F ISym2E= 0 IDoP0=0 IntGTp=1.
 FoFCou: FMM=F IPFlag=           0 FMFlag=      100000 FMFlg1=           0
         NFxFlg=           0 DoJE=F BraDBF=F KetDBF=F FulRan=T
         wScrn=  0.000000 ICntrl=         0 IOpCl=  0 I1Cent=           0 NGrid=           0
         NMat0=    1 NMatS0=      1 NMatT0=    0 NMatD0=    1 NMtDS0=    0 NMtDT0=    0
 Symmetry not used in FoFCou.
 E= -652.710964144299    
 DIIS: error= 2.64D-02 at cycle   1 NSaved=   1.
 NSaved= 1 IEnMin= 1 EnMin= -652.710964144299     IErMin= 1 ErrMin= 2.64D-02
 ErrMax= 2.64D-02  0.00D+00 EMaxC= 1.00D-01 BMatC= 4.74D-01 BMatP= 4.74D-01
 IDIUse=3 WtCom= 7.36D-01 WtEn= 2.64D-01
 Coeff-Com:  0.100D+01
 Coeff-En:   0.100D+01
 Coeff:      0.100D+01
 Gap=     0.248 Goal=   None    Shift=    0.000
 GapD=    0.248 DampG=1.000 DampE=0.500 DampFc=0.5000 IDamp=-1.
 Damping current iteration by 5.00D-01
 RMSDP=1.23D-02 MaxDP=1.81D+00              OVMax= 1.90D-01

 Cycle   2  Pass 1  IDiag  1:
 RMSU=  4.65D-03    CP:  8.57D-01
 E= -652.924125028068     Delta-E=       -0.213160883768 Rises=F Damp=T
 DIIS: error= 8.49D-03 at cycle   2 NSaved=   2.
 NSaved= 2 IEnMin= 2 EnMin= -652.924125028068     IErMin= 2 ErrMin= 8.49D-03
 ErrMax= 8.49D-03  0.00D+00 EMaxC= 1.00D-01 BMatC= 3.81D-02 BMatP= 4.74D-01
 IDIUse=3 WtCom= 9.15D-01 WtEn= 8.49D-02
 Coeff-Com: -0.442D-01 0.104D+01
 Coeff-En:   0.000D+00 0.100D+01
 Coeff:     -0.404D-01 0.104D+01
 Gap=     0.239 Goal=   None    Shift=    0.000
 RMSDP=8.42D-03 MaxDP=1.31D+00 DE=-2.13D-01 OVMax= 1.26D-01

 Cycle   3  Pass 1  IDiag  1:
 RMSU=  3.87D-03    CP:  5.89D-01  1.16D+00
 E= -653.127216042084     Delta-E=       -0.203091014017 Rises=F Damp=F
 DIIS: error= 1.61D-02 at cycle   3 NSaved=   3.
 NSaved= 3 IEnMin= 3 EnMin= -653.127216042084     IErMin= 2 ErrMin= 8.49D-03
 ErrMax= 1.61D-02  0.00D+00 EMaxC= 1.00D-01 BMatC= 2.06D-02 BMatP= 3.81D-02
 IDIUse=3 WtCom= 8.39D-01 WtEn= 1.61D-01
 Coeff-Com: -0.751D-01 0.454D+00 0.621D+00
 Coeff-En:   0.000D+00 0.000D+00 0.100D+01
 Coeff:     -0.630D-01 0.381D+00 0.682D+00
 Gap=     0.221 Goal=   None    Shift=    0.000
 RMSDP=1.68D-03 MaxDP=1.39D-01 DE=-2.03D-01 OVMax= 6.52D-02

 Cycle   4  Pass 1  IDiag  1:
 RMSU=  1.54D-03    CP:  5.68D-01  1.16D+00  9.16D-01
 E= -653.135439391142     Delta-E=       -0.008223349058 Rises=F Damp=F
 DIIS: error= 1.11D-02 at cycle   4 NSaved=   4.
 NSaved= 4 IEnMin= 4 EnMin= -653.135439391142     IErMin= 2 ErrMin= 8.49D-03
 ErrMax= 1.11D-02  0.00D+00 EMaxC= 1.00D-01 BMatC= 1.16D-02 BMatP= 2.06D-02
 IDIUse=3 WtCom= 8.89D-01 WtEn= 1.11D-01
 Coeff-Com: -0.271D-01 0.102D+00 0.442D+00 0.483D+00
 Coeff-En:   0.000D+00 0.000D+00 0.389D+00 0.611D+00
 Coeff:     -0.241D-01 0.904D-01 0.436D+00 0.497D+00
 Gap=     0.219 Goal=   None    Shift=    0.000
 RMSDP=8.24D-04 MaxDP=1.10D-01 DE=-8.22D-03 OVMax= 2.84D-02

 Cycle   5  Pass 1  IDiag  1:
 RMSU=  3.09D-04    CP:  5.62D-01  1.19D+00  9.57D-01  5.36D-01
 E= -653.146475048511     Delta-E=       -0.011035657370 Rises=F Damp=F
 DIIS: error= 7.01D-04 at cycle   5 NSaved=   5.
 NSaved= 5 IEnMin= 5 EnMin= -653.146475048511     IErMin= 5 ErrMin= 7.01D-04
 ErrMax= 7.01D-04  0.00D+00 EMaxC= 1.00D-01 BMatC= 1.60D-04 BMatP= 1.16D-02
 IDIUse=3 WtCom= 9.93D-01 WtEn= 7.01D-03
 Coeff-Com: -0.603D-02 0.190D-01 0.154D+00 0.208D+00 0.624D+00
 Coeff-En:   0.000D+00 0.000D+00 0.000D+00 0.000D+00 0.100D+01
 Coeff:     -0.599D-02 0.189D-01 0.153D+00 0.207D+00 0.627D+00
 Gap=     0.218 Goal=   None    Shift=    0.000
 RMSDP=1.45D-04 MaxDP=2.05D-02 DE=-1.10D-02 OVMax= 5.48D-03

 Cycle   6  Pass 1  IDiag  1:
 RMSU=  1.18D-04    CP:  5.64D-01  1.20D+00  9.56D-01  5.61D-01  8.39D-01
 E= -653.146588119103     Delta-E=       -0.000113070591 Rises=F Damp=F
 DIIS: error= 4.27D-04 at cycle   6 NSaved=   6.
 NSaved= 6 IEnMin= 6 EnMin= -653.146588119103     IErMin= 6 ErrMin= 4.27D-04
 ErrMax= 4.27D-04  0.00D+00 EMaxC= 1.00D-01 BMatC= 3.68D-05 BMatP= 1.60D-04
 IDIUse=3 WtCom= 9.96D-01 WtEn= 4.27D-03
 Coeff-Com:  0.354D-04-0.114D-02 0.332D-01 0.563D-01 0.361D+00 0.551D+00
 Coeff-En:   0.000D+00 0.000D+00 0.000D+00 0.000D+00 0.186D+00 0.814D+00
 Coeff:      0.352D-04-0.113D-02 0.331D-01 0.561D-01 0.360D+00 0.552D+00
 Gap=     0.219 Goal=   None    Shift=    0.000
 RMSDP=5.79D-05 MaxDP=3.15D-03 DE=-1.13D-04 OVMax= 2.94D-03

 Cycle   7  Pass 1  IDiag  1:
 RMSU=  3.98D-05    CP:  5.64D-01  1.20D+00  9.57D-01  5.46D-01  8.60D-01
                    CP:  7.11D-01
 E= -653.146624356709     Delta-E=       -0.000036237607 Rises=F Damp=F
 DIIS: error= 5.26D-05 at cycle   7 NSaved=   7.
 NSaved= 7 IEnMin= 7 EnMin= -653.146624356709     IErMin= 7 ErrMin= 5.26D-05
 ErrMax= 5.26D-05  0.00D+00 EMaxC= 1.00D-01 BMatC= 1.24D-06 BMatP= 3.68D-05
 IDIUse=1 WtCom= 1.00D+00 WtEn= 0.00D+00
 Coeff-Com:  0.819D-03-0.287D-02-0.649D-02-0.652D-02 0.376D-01 0.182D+00
 Coeff-Com:  0.795D+00
 Coeff:      0.819D-03-0.287D-02-0.649D-02-0.652D-02 0.376D-01 0.182D+00
 Coeff:      0.795D+00
 Gap=     0.218 Goal=   None    Shift=    0.000
 RMSDP=1.40D-05 MaxDP=1.27D-03 DE=-3.62D-05 OVMax= 2.70D-04

 Cycle   8  Pass 1  IDiag  1:
 RMSU=  9.64D-06    CP:  5.64D-01  1.20D+00  9.57D-01  5.50D-01  8.62D-01
                    CP:  7.64D-01  1.04D+00
 E= -653.146625502705     Delta-E=       -0.000001145996 Rises=F Damp=F
 DIIS: error= 2.04D-05 at cycle   8 NSaved=   8.
 NSaved= 8 IEnMin= 8 EnMin= -653.146625502705     IErMin= 8 ErrMin= 2.04D-05
 ErrMax= 2.04D-05  0.00D+00 EMaxC= 1.00D-01 BMatC= 1.37D-07 BMatP= 1.24D-06
 IDIUse=1 WtCom= 1.00D+00 WtEn= 0.00D+00
 Coeff-Com:  0.425D-03-0.138D-02-0.521D-02-0.694D-02-0.547D-02 0.564D-01
 Coeff-Com:  0.361D+00 0.601D+00
 Coeff:      0.425D-03-0.138D-02-0.521D-02-0.694D-02-0.547D-02 0.564D-01
 Coeff:      0.361D+00 0.601D+00
 Gap=     0.219 Goal=   None    Shift=    0.000
 RMSDP=4.16D-06 MaxDP=3.09D-04 DE=-1.15D-06 OVMax= 1.42D-04

 Cycle   9  Pass 1  IDiag  1:
 RMSU=  2.60D-06    CP:  5.64D-01  1.20D+00  9.57D-01  5.49D-01  8.67D-01
                    CP:  7.74D-01  1.04D+00  9.00D-01
 E= -653.146625658966     Delta-E=       -0.000000156260 Rises=F Damp=F
 DIIS: error= 6.55D-06 at cycle   9 NSaved=   9.
 NSaved= 9 IEnMin= 9 EnMin= -653.146625658966     IErMin= 9 ErrMin= 6.55D-06
 ErrMax= 6.55D-06  0.00D+00 EMaxC= 1.00D-01 BMatC= 9.41D-09 BMatP= 1.37D-07
 IDIUse=1 WtCom= 1.00D+00 WtEn= 0.00D+00
 Coeff-Com:  0.881D-05 0.225D-04-0.434D-03-0.932D-03-0.716D-02-0.804D-02
 Coeff-Com: -0.353D-01 0.148D+00 0.904D+00
 Coeff:      0.881D-05 0.225D-04-0.434D-03-0.932D-03-0.716D-02-0.804D-02
 Coeff:     -0.353D-01 0.148D+00 0.904D+00
 Gap=     0.219 Goal=   None    Shift=    0.000
 RMSDP=1.77D-06 MaxDP=2.00D-04 DE=-1.56D-07 OVMax= 8.41D-05

 Cycle  10  Pass 1  IDiag  1:
 RMSU=  1.00D-06    CP:  5.64D-01  1.20D+00  9.57D-01  5.49D-01  8.66D-01
                    CP:  7.79D-01  1.05D+00  1.01D+00  1.06D+00
 E= -653.146625672839     Delta-E=       -0.000000013873 Rises=F Damp=F
 DIIS: error= 2.86D-06 at cycle  10 NSaved=  10.
 NSaved=10 IEnMin=10 EnMin= -653.146625672839     IErMin=10 ErrMin= 2.86D-06
 ErrMax= 2.86D-06  0.00D+00 EMaxC= 1.00D-01 BMatC= 1.19D-09 BMatP= 9.41D-09
 IDIUse=1 WtCom= 1.00D+00 WtEn= 0.00D+00
 Coeff-Com: -0.341D-04 0.135D-03 0.327D-03 0.283D-03-0.234D-02-0.695D-02
 Coeff-Com: -0.462D-01 0.149D-01 0.363D+00 0.677D+00
 Coeff:     -0.341D-04 0.135D-03 0.327D-03 0.283D-03-0.234D-02-0.695D-02
 Coeff:     -0.462D-01 0.149D-01 0.363D+00 0.677D+00
 Gap=     0.219 Goal=   None    Shift=    0.000
 RMSDP=3.71D-07 MaxDP=5.73D-05 DE=-1.39D-08 OVMax= 1.30D-05

 Cycle  11  Pass 1  IDiag  1:
 RMSU=  2.16D-07    CP:  5.64D-01  1.20D+00  9.57D-01  5.50D-01  8.66D-01
                    CP:  7.80D-01  1.05D+00  1.03D+00  1.12D+00  1.08D+00
 E= -653.146625674337     Delta-E=       -0.000000001498 Rises=F Damp=F
 DIIS: error= 6.37D-07 at cycle  11 NSaved=  11.
 NSaved=11 IEnMin=11 EnMin= -653.146625674337     IErMin=11 ErrMin= 6.37D-07
 ErrMax= 6.37D-07  0.00D+00 EMaxC= 1.00D-01 BMatC= 1.55D-10 BMatP= 1.19D-09
 IDIUse=1 WtCom= 1.00D+00 WtEn= 0.00D+00
 Coeff-Com: -0.158D-04 0.516D-04 0.197D-03 0.252D-03 0.307D-04-0.152D-02
 Coeff-Com: -0.142D-01-0.165D-01 0.437D-02 0.270D+00 0.757D+00
 Coeff:     -0.158D-04 0.516D-04 0.197D-03 0.252D-03 0.307D-04-0.152D-02
 Coeff:     -0.142D-01-0.165D-01 0.437D-02 0.270D+00 0.757D+00
 Gap=     0.219 Goal=   None    Shift=    0.000
 RMSDP=1.70D-07 MaxDP=2.51D-05 DE=-1.50D-09 OVMax= 1.06D-05

 Cycle  12  Pass 1  IDiag  1:
 RMSU=  1.03D-07    CP:  5.64D-01  1.20D+00  9.57D-01  5.50D-01  8.66D-01
                    CP:  7.80D-01  1.05D+00  1.04D+00  1.15D+00  1.14D+00
                    CP:  1.28D+00
 E= -653.146625674554     Delta-E=       -0.000000000217 Rises=F Damp=F
 DIIS: error= 4.05D-07 at cycle  12 NSaved=  12.
 NSaved=12 IEnMin=12 EnMin= -653.146625674554     IErMin=12 ErrMin= 4.05D-07
 ErrMax= 4.05D-07  0.00D+00 EMaxC= 1.00D-01 BMatC= 1.25D-11 BMatP= 1.55D-10
 IDIUse=1 WtCom= 1.00D+00 WtEn= 0.00D+00
 Coeff-Com: -0.161D-05 0.271D-05 0.304D-04 0.482D-04 0.220D-03 0.320D-03
 Coeff-Com:  0.165D-03-0.549D-02-0.314D-01 0.153D-01 0.243D+00 0.778D+00
 Coeff:     -0.161D-05 0.271D-05 0.304D-04 0.482D-04 0.220D-03 0.320D-03
 Coeff:      0.165D-03-0.549D-02-0.314D-01 0.153D-01 0.243D+00 0.778D+00
 Gap=     0.219 Goal=   None    Shift=    0.000
 RMSDP=6.94D-08 MaxDP=8.62D-06 DE=-2.17D-10 OVMax= 2.56D-06

 Cycle  13  Pass 1  IDiag  1:
 RMSU=  4.03D-08    CP:  5.64D-01  1.20D+00  9.57D-01  5.50D-01  8.66D-01
                    CP:  7.80D-01  1.05D+00  1.04D+00  1.15D+00  1.18D+00
                    CP:  1.35D+00  1.00D+00
 E= -653.146625674525     Delta-E=        0.000000000029 Rises=F Damp=F
 DIIS: error= 8.73D-08 at cycle  13 NSaved=  13.
 NSaved=13 IEnMin=12 EnMin= -653.146625674554     IErMin=13 ErrMin= 8.73D-08
 ErrMax= 8.73D-08  0.00D+00 EMaxC= 1.00D-01 BMatC= 3.37D-12 BMatP= 1.25D-11
 IDIUse=1 WtCom= 1.00D+00 WtEn= 0.00D+00
 Coeff-Com:  0.998D-06-0.463D-05-0.714D-05-0.432D-05 0.111D-03 0.352D-03
 Coeff-Com:  0.183D-02-0.110D-02-0.181D-01-0.292D-01 0.256D-01 0.394D+00
 Coeff-Com:  0.626D+00
 Coeff:      0.998D-06-0.463D-05-0.714D-05-0.432D-05 0.111D-03 0.352D-03
 Coeff:      0.183D-02-0.110D-02-0.181D-01-0.292D-01 0.256D-01 0.394D+00
 Coeff:      0.626D+00
 Gap=     0.219 Goal=   None    Shift=    0.000
 RMSDP=2.27D-08 MaxDP=3.62D-06 DE= 2.91D-11 OVMax= 7.33D-07

 Cycle  14  Pass 1  IDiag  1:
 RMSU=  1.08D-08    CP:  5.64D-01  1.20D+00  9.57D-01  5.50D-01  8.66D-01
                    CP:  7.80D-01  1.05D+00  1.04D+00  1.15D+00  1.19D+00
                    CP:  1.40D+00  1.09D+00  9.97D-01
 E= -653.146625674511     Delta-E=        0.000000000014 Rises=F Damp=F
 DIIS: error= 3.31D-08 at cycle  14 NSaved=  14.
 NSaved=14 IEnMin=12 EnMin= -653.146625674554     IErMin=14 ErrMin= 3.31D-08
 ErrMax= 3.31D-08  0.00D+00 EMaxC= 1.00D-01 BMatC= 1.46D-13 BMatP= 3.37D-12
 IDIUse=1 WtCom= 1.00D+00 WtEn= 0.00D+00
 Coeff-Com:  0.545D-06-0.185D-05-0.646D-05-0.761D-05 0.326D-05 0.662D-04
 Coeff-Com:  0.540D-03 0.377D-03-0.135D-02-0.113D-01-0.217D-01 0.325D-01
 Coeff-Com:  0.178D+00 0.823D+00
 Coeff:      0.545D-06-0.185D-05-0.646D-05-0.761D-05 0.326D-05 0.662D-04
 Coeff:      0.540D-03 0.377D-03-0.135D-02-0.113D-01-0.217D-01 0.325D-01
 Coeff:      0.178D+00 0.823D+00
 Gap=     0.219 Goal=   None    Shift=    0.000
 RMSDP=6.34D-09 MaxDP=6.80D-07 DE= 1.43D-11 OVMax= 3.10D-07

 SCF Done:  E(RMN15) =  -653.146625675     A.U. after   14 cycles
            NFock= 14  Conv=0.63D-08     -V/T= 2.0039
 KE= 6.506256792947D+02 PE=-3.611197059301D+03 EE= 1.260044985194D+03
 Leave Link  502 at Thu Dec  7 12:36:41 2023, MaxMem=  2147483648 cpu:            4680.3 elap:             185.1
 (Enter /opt/gaussian/g16-c01/g16/l601.exe)
 Copying SCF densities to generalized density rwf, IOpCl= 0 IROHF=0.

 **********************************************************************

            Population analysis using the SCF Density.

 **********************************************************************

 Orbital symmetries:
       Occupied  (A) (A) (A) (A) (A) (A) (A) (A) (A) (A) (A) (A)
                 (A) (A) (A) (A) (A) (A) (A) (A) (A) (A) (A) (A)
                 (A) (A) (A) (A) (A) (A) (A) (A) (A) (A) (A) (A)
                 (A) (A) (A) (A) (A) (A) (A) (A) (A) (A) (A) (A)
                 (A) (A) (A) (A) (A) (A) (A) (A) (A) (A)
       Virtual   (A) (A) (A) (A) (A) (A) (A) (A) (A) (A) (A) (A)
                 (A) (A) (A) (A) (A) (A) (A) (A) (A) (A) (A) (A)
                 (A) (A) (A) (A) (A) (A) (A) (A) (A) (A) (A) (A)
                 (A) (A) (A) (A) (A) (A) (A) (A) (A) (A) (A) (A)
                 (A) (A) (A) (A) (A) (A) (A) (A) (A) (A) (A) (A)
                 (A) (A) (A) (A) (A) (A) (A) (A) (A) (A) (A) (A)
                 (A) (A) (A) (A) (A) (A) (A) (A) (A) (A) (A) (A)
                 (A) (A) (A) (A) (A) (A) (A) (A) (A) (A) (A) (A)
                 (A) (A) (A) (A) (A) (A) (A) (A) (A) (A) (A) (A)
                 (A) (A) (A) (A) (A) (A) (A) (A) (A) (A) (A) (A)
                 (A) (A) (A) (A) (A) (A) (A) (A) (A) (A) (A) (A)
                 (A) (A) (A) (A) (A) (A) (A) (A) (A) (A) (A) (A)
                 (A) (A) (A) (A) (A) (A) (A) (A) (A) (A) (A) (A)
                 (A) (A) (A) (A) (A) (A) (A) (A) (A) (A) (A) (A)
                 (A) (A) (A) (A) (A) (A) (A) (A) (A) (A) (A) (A)
                 (A) (A) (A) (A) (A) (A) (A) (A) (A) (A) (A) (A)
                 (A) (A) (A) (A) (A) (A) (A) (A) (A) (A) (A) (A)
                 (A) (A) (A) (A) (A) (A) (A) (A) (A) (A) (A) (A)
                 (A) (A) (A) (A) (A) (A) (A) (A) (A) (A) (A) (A)
                 (A) (A) (A) (A) (A) (A) (A) (A) (A) (A) (A) (A)
                 (A) (A) (A) (A) (A) (A) (A) (A) (A) (A) (A) (A)
                 (A) (A) (A) (A) (A) (A) (A) (A) (A) (A) (A) (A)
                 (A) (A) (A) (A) (A) (A) (A) (A) (A) (A) (A) (A)
                 (A) (A) (A) (A) (A) (A) (A) (A) (A) (A) (A) (A)
                 (A) (A) (A) (A) (A) (A) (A) (A) (A) (A) (A) (A)
                 (A) (A) (A) (A) (A) (A) (A) (A) (A) (A) (A) (A)
                 (A) (A) (A) (A) (A) (A) (A) (A) (A) (A) (A) (A)
                 (A) (A) (A) (A) (A) (A) (A) (A) (A) (A) (A) (A)
                 (A) (A) (A) (A) (A) (A) (A) (A) (A) (A) (A) (A)
                 (A) (A) (A) (A) (A) (A) (A) (A) (A) (A) (A) (A)
                 (A) (A) (A) (A) (A) (A) (A) (A) (A) (A) (A) (A)
                 (A) (A) (A) (A) (A) (A) (A) (A) (A) (A) (A) (A)
                 (A) (A) (A) (A) (A) (A) (A) (A) (A) (A) (A) (A)
                 (A) (A) (A) (A) (A) (A) (A) (A) (A) (A) (A) (A)
                 (A) (A) (A) (A) (A) (A) (A) (A) (A)
 The electronic state is 1-A.
 Alpha  occ. eigenvalues --  -14.13830 -14.09816 -10.08434 -10.08036 -10.07536
 Alpha  occ. eigenvalues --  -10.07532 -10.05345 -10.05341 -10.04598 -10.04596
 Alpha  occ. eigenvalues --  -10.04032 -10.04031 -10.02976 -10.02973 -10.01838
 Alpha  occ. eigenvalues --  -10.01780  -1.04008  -0.99564  -0.90572  -0.84538
 Alpha  occ. eigenvalues --   -0.82750  -0.79933  -0.79000  -0.76268  -0.74690
 Alpha  occ. eigenvalues --   -0.68891  -0.68083  -0.65723  -0.62983  -0.60786
 Alpha  occ. eigenvalues --   -0.60118  -0.59040  -0.56098  -0.54154  -0.50789
 Alpha  occ. eigenvalues --   -0.50524  -0.49552  -0.48640  -0.48557  -0.46799
 Alpha  occ. eigenvalues --   -0.46150  -0.45959  -0.45210  -0.44177  -0.42818
 Alpha  occ. eigenvalues --   -0.41883  -0.41577  -0.41474  -0.41210  -0.40756
 Alpha  occ. eigenvalues --   -0.38937  -0.38869  -0.37702  -0.34087  -0.29489
 Alpha  occ. eigenvalues --   -0.28205  -0.24699  -0.21410
 Alpha virt. eigenvalues --    0.00441   0.00828   0.02549   0.03939   0.03961
 Alpha virt. eigenvalues --    0.04649   0.05185   0.05458   0.06515   0.06710
 Alpha virt. eigenvalues --    0.06898   0.07173   0.07597   0.08460   0.08711
 Alpha virt. eigenvalues --    0.08995   0.09099   0.10025   0.10552   0.11006
 Alpha virt. eigenvalues --    0.11096   0.11544   0.11633   0.11869   0.12356
 Alpha virt. eigenvalues --    0.12629   0.13576   0.13641   0.14255   0.14399
 Alpha virt. eigenvalues --    0.14562   0.15056   0.15119   0.15475   0.15716
 Alpha virt. eigenvalues --    0.15896   0.16268   0.16423   0.16562   0.17027
 Alpha virt. eigenvalues --    0.17593   0.17641   0.18037   0.18267   0.18469
 Alpha virt. eigenvalues --    0.18955   0.19047   0.19095   0.19448   0.19821
 Alpha virt. eigenvalues --    0.20256   0.20260   0.20452   0.20913   0.21025
 Alpha virt. eigenvalues --    0.21449   0.21892   0.22153   0.22452   0.23092
 Alpha virt. eigenvalues --    0.23121   0.23567   0.23783   0.24238   0.24536
 Alpha virt. eigenvalues --    0.24720   0.25371   0.25891   0.26073   0.26479
 Alpha virt. eigenvalues --    0.26593   0.26603   0.27629   0.27635   0.28627
 Alpha virt. eigenvalues --    0.28957   0.29811   0.30218   0.30273   0.30853
 Alpha virt. eigenvalues --    0.30993   0.32137   0.32422   0.33235   0.33298
 Alpha virt. eigenvalues --    0.33466   0.33781   0.34145   0.35243   0.35290
 Alpha virt. eigenvalues --    0.35440   0.35966   0.35970   0.36326   0.36537
 Alpha virt. eigenvalues --    0.36793   0.37482   0.37747   0.38110   0.38342
 Alpha virt. eigenvalues --    0.39124   0.39345   0.40076   0.40215   0.40443
 Alpha virt. eigenvalues --    0.40888   0.41747   0.42249   0.42982   0.43374
 Alpha virt. eigenvalues --    0.44949   0.45903   0.46821   0.48235   0.49199
 Alpha virt. eigenvalues --    0.49979   0.50579   0.52054   0.53652   0.55230
 Alpha virt. eigenvalues --    0.55472   0.55819   0.56936   0.58360   0.58964
 Alpha virt. eigenvalues --    0.59267   0.60669   0.61295   0.61424   0.61959
 Alpha virt. eigenvalues --    0.62191   0.63384   0.63786   0.64132   0.65087
 Alpha virt. eigenvalues --    0.65432   0.66314   0.66955   0.67679   0.67772
 Alpha virt. eigenvalues --    0.68914   0.69506   0.69754   0.70157   0.70432
 Alpha virt. eigenvalues --    0.70986   0.71214   0.71662   0.73420   0.73475
 Alpha virt. eigenvalues --    0.74475   0.75156   0.76187   0.76657   0.76932
 Alpha virt. eigenvalues --    0.77570   0.77915   0.78164   0.78729   0.79051
 Alpha virt. eigenvalues --    0.80093   0.80635   0.81275   0.82644   0.83107
 Alpha virt. eigenvalues --    0.84004   0.84016   0.86245   0.87915   0.88087
 Alpha virt. eigenvalues --    0.88894   0.90244   0.91448   0.91962   0.92105
 Alpha virt. eigenvalues --    0.92520   0.92732   0.94056   0.95429   0.95843
 Alpha virt. eigenvalues --    0.96865   0.97857   0.98356   0.98973   0.99414
 Alpha virt. eigenvalues --    0.99861   1.02046   1.02479   1.03415   1.05232
 Alpha virt. eigenvalues --    1.05760   1.06133   1.06607   1.09084   1.09543
 Alpha virt. eigenvalues --    1.10495   1.11037   1.11961   1.13095   1.14439
 Alpha virt. eigenvalues --    1.15511   1.15617   1.18049   1.19374   1.19444
 Alpha virt. eigenvalues --    1.19696   1.22962   1.24663   1.27779   1.32364
 Alpha virt. eigenvalues --    1.33232   1.35626   1.35711   1.40433   1.41122
 Alpha virt. eigenvalues --    1.42412   1.46513   1.49078   1.49453   1.51055
 Alpha virt. eigenvalues --    1.51759   1.52020   1.52381   1.53784   1.54465
 Alpha virt. eigenvalues --    1.55230   1.55988   1.56592   1.57933   1.59258
 Alpha virt. eigenvalues --    1.59781   1.60133   1.60763   1.61147   1.61209
 Alpha virt. eigenvalues --    1.61577   1.62395   1.63486   1.64767   1.66030
 Alpha virt. eigenvalues --    1.66627   1.66900   1.67374   1.70279   1.72333
 Alpha virt. eigenvalues --    1.72916   1.73694   1.74160   1.74897   1.76338
 Alpha virt. eigenvalues --    1.76992   1.77970   1.78473   1.79920   1.80009
 Alpha virt. eigenvalues --    1.80302   1.80716   1.81647   1.83049   1.83088
 Alpha virt. eigenvalues --    1.84829   1.86989   1.87479   1.87912   1.89997
 Alpha virt. eigenvalues --    1.90306   1.90346   1.91088   1.94076   1.96196
 Alpha virt. eigenvalues --    1.97344   1.97689   1.97964   1.98755   1.99500
 Alpha virt. eigenvalues --    2.00522   2.02129   2.02522   2.05174   2.06588
 Alpha virt. eigenvalues --    2.06614   2.08090   2.08925   2.10710   2.12209
 Alpha virt. eigenvalues --    2.12658   2.14083   2.14406   2.16401   2.19192
 Alpha virt. eigenvalues --    2.23366   2.23811   2.23988   2.26815   2.27440
 Alpha virt. eigenvalues --    2.27801   2.29038   2.32133   2.33206   2.34842
 Alpha virt. eigenvalues --    2.38533   2.41727   2.41837   2.43626   2.43831
 Alpha virt. eigenvalues --    2.45897   2.46222   2.46755   2.47744   2.48346
 Alpha virt. eigenvalues --    2.51311   2.51629   2.52639   2.53099   2.53604
 Alpha virt. eigenvalues --    2.55838   2.57144   2.57937   2.58171   2.59362
 Alpha virt. eigenvalues --    2.59477   2.60228   2.60949   2.64658   2.65332
 Alpha virt. eigenvalues --    2.66214   2.68558   2.69291   2.69365   2.70935
 Alpha virt. eigenvalues --    2.71157   2.73348   2.73602   2.73725   2.74438
 Alpha virt. eigenvalues --    2.74467   2.74741   2.76926   2.78236   2.78722
 Alpha virt. eigenvalues --    2.79308   2.80894   2.82460   2.82854   2.84109
 Alpha virt. eigenvalues --    2.85023   2.86278   2.87176   2.87530   2.88409
 Alpha virt. eigenvalues --    2.89844   2.91997   2.93137   2.94069   2.96738
 Alpha virt. eigenvalues --    2.97591   3.02454   3.02714   3.07612   3.14488
 Alpha virt. eigenvalues --    3.14644   3.21920   3.25383   3.26581   3.28243
 Alpha virt. eigenvalues --    3.30269   3.34994   3.37517   3.42913   3.44595
 Alpha virt. eigenvalues --    3.46084   3.49514   3.53278   3.55491   3.64542
 Alpha virt. eigenvalues --    3.66684   3.71485   3.72273   3.72954   3.74250
 Alpha virt. eigenvalues --    3.75682   3.76350   3.77358   3.78512   3.84811
 Alpha virt. eigenvalues --    3.86298   3.94756   3.95875   3.96818   4.02569
 Alpha virt. eigenvalues --    4.04721   4.10938   4.16760   4.18962   4.19596
 Alpha virt. eigenvalues --    4.26535   4.76433   4.86744   4.95443   5.03319
 Alpha virt. eigenvalues --    5.12958  22.56767  22.68701  22.77739  22.81685
 Alpha virt. eigenvalues --   22.84586  22.86554  22.87824  22.88055  22.89850
 Alpha virt. eigenvalues --   22.95712  22.99658  23.01955  23.07117  23.08432
 Alpha virt. eigenvalues --   33.87856  33.91539
          Condensed to atoms (all electrons):
               1          2          3          4          5          6
     1  N    7.107724   0.002529   0.369673   0.114740   0.112001  -0.013745
     2  N    0.002529   6.740001   0.061797  -0.000687  -0.000699   0.032590
     3  C    0.369673   0.061797  10.556714   0.290913   0.296820  -0.406698
     4  C    0.114740  -0.000687   0.290913   5.735847  -0.164918  -0.065226
     5  C    0.112001  -0.000699   0.296820  -0.164918   5.742119  -0.068650
     6  C   -0.013745   0.032590  -0.406698  -0.065226  -0.068650   9.120577
     7  C   -0.173334  -0.010926  -0.674819  -0.316861  -0.122741  -0.886988
     8  C   -0.170321  -0.010409  -0.690298  -0.124882  -0.321688  -0.883239
     9  C   -0.047322  -0.089659  -1.371861  -0.077088  -0.053268  -0.405285
    10  C   -0.045834  -0.089585  -1.390548  -0.054197  -0.080322  -0.395290
    11  C   -0.031861   0.000066  -0.120983   0.060323   0.045204   0.005157
    12  C   -0.029375   0.000066  -0.126562   0.044029   0.056507   0.006302
    13  C   -0.000405   0.326541  -0.044653  -0.000985   0.014727  -0.064931
    14  C   -0.000426   0.327057  -0.043346   0.015031  -0.001048  -0.065584
    15  C   -0.000095  -0.179856  -0.043628  -0.001491   0.005862   0.314942
    16  C   -0.000076  -0.180493  -0.042781   0.005833  -0.001526   0.313789
    17  H   -0.033276   0.000387   0.064048   0.301787  -0.042586  -0.003859
    18  H   -0.117656  -0.000072   0.017499   0.425790   0.086346   0.002353
    19  H   -0.035321   0.000378   0.070441  -0.041618   0.302000  -0.003528
    20  H   -0.117076  -0.000070   0.016156   0.085054   0.426968   0.002129
    21  H   -0.039815  -0.006828  -0.299253   0.042249   0.007291   0.053939
    22  H   -0.039037  -0.006809  -0.301670   0.006744   0.040340   0.055129
    23  H   -0.005942  -0.046718   0.059333   0.008980  -0.005652  -0.014191
    24  H   -0.006091  -0.046736   0.060227  -0.005589   0.009326  -0.015383
    25  H    0.015900  -0.000020   0.006302  -0.005499  -0.047309  -0.000814
    26  H   -0.022918   0.000380   0.002066   0.078747   0.032102  -0.013011
    27  H    0.031923   0.000011  -0.022532  -0.095305   0.003036   0.004384
    28  H    0.014512  -0.000021   0.009273  -0.047068  -0.003811  -0.000800
    29  H   -0.022343   0.000392   0.000593   0.031492   0.079707  -0.012895
    30  H    0.032003   0.000010  -0.022692   0.003067  -0.096457   0.004347
    31  H    0.000523  -0.074590  -0.006186   0.000805  -0.001236   0.003006
    32  H    0.000510  -0.074553  -0.006116  -0.001157   0.000808   0.002767
    33  H   -0.000006   0.028143  -0.000702  -0.000013   0.000010  -0.001939
    34  H   -0.000006   0.028131  -0.000701   0.000009  -0.000013  -0.001872
               7          8          9         10         11         12
     1  N   -0.173334  -0.170321  -0.047322  -0.045834  -0.031861  -0.029375
     2  N   -0.010926  -0.010409  -0.089659  -0.089585   0.000066   0.000066
     3  C   -0.674819  -0.690298  -1.371861  -1.390548  -0.120983  -0.126562
     4  C   -0.316861  -0.124882  -0.077088  -0.054197   0.060323   0.044029
     5  C   -0.122741  -0.321688  -0.053268  -0.080322   0.045204   0.056507
     6  C   -0.886988  -0.883239  -0.405285  -0.395290   0.005157   0.006302
     7  C    7.302764  -0.658488   1.760570  -0.426227   0.076570   0.010586
     8  C   -0.658488   7.313692  -0.425568   1.762448   0.010955   0.082913
     9  C    1.760570  -0.425568   7.421947  -0.600491  -0.000922   0.000643
    10  C   -0.426227   1.762448  -0.600491   7.426507   0.001082   0.001169
    11  C    0.076570   0.010955  -0.000922   0.001082   5.300672  -0.014023
    12  C    0.010586   0.082913   0.000643   0.001169  -0.014023   5.301328
    13  C   -0.133605  -0.145486  -0.323347   0.098308   0.000303  -0.003410
    14  C   -0.143985  -0.133418   0.097067  -0.322907  -0.003460   0.000304
    15  C   -0.032770   0.114399  -0.106158  -0.205488  -0.000057  -0.000941
    16  C    0.113888  -0.033725  -0.205900  -0.106092  -0.000913  -0.000042
    17  H    0.048670   0.024447  -0.046665  -0.002101  -0.041751   0.013114
    18  H   -0.014607  -0.043290   0.004905  -0.005090  -0.073994  -0.015759
    19  H    0.023209   0.045010  -0.001940  -0.047615   0.012262  -0.042129
    20  H   -0.042854  -0.014327  -0.005015   0.004961  -0.014890  -0.075149
    21  H    0.391761  -0.042851   0.156148  -0.007242  -0.020731   0.000791
    22  H   -0.042011   0.392434  -0.007279   0.157222   0.000979  -0.019676
    23  H   -0.040937   0.061155   0.181128   0.040717  -0.000727  -0.000294
    24  H    0.061333  -0.040597   0.041065   0.180366  -0.000325  -0.000900
    25  H   -0.014641   0.038981  -0.007983   0.005698   0.350565   0.009552
    26  H   -0.013504  -0.064139   0.008492  -0.017622   0.332971  -0.002567
    27  H    0.039018  -0.003079   0.006866  -0.000883   0.403180  -0.001599
    28  H    0.038709  -0.016495   0.005748  -0.008362   0.009240   0.349043
    29  H   -0.063340  -0.012855  -0.017496   0.008627  -0.002218   0.331982
    30  H   -0.003020   0.038712  -0.000866   0.006933  -0.001619   0.404682
    31  H   -0.013375  -0.046104  -0.022976   0.025460  -0.000027   0.000167
    32  H   -0.045742  -0.013306   0.025199  -0.022952   0.000135  -0.000030
    33  H    0.001124   0.002550  -0.000680   0.009852  -0.000006   0.000004
    34  H    0.002511   0.001125   0.009862  -0.000679   0.000004  -0.000006
              13         14         15         16         17         18
     1  N   -0.000405  -0.000426  -0.000095  -0.000076  -0.033276  -0.117656
     2  N    0.326541   0.327057  -0.179856  -0.180493   0.000387  -0.000072
     3  C   -0.044653  -0.043346  -0.043628  -0.042781   0.064048   0.017499
     4  C   -0.000985   0.015031  -0.001491   0.005833   0.301787   0.425790
     5  C    0.014727  -0.001048   0.005862  -0.001526  -0.042586   0.086346
     6  C   -0.064931  -0.065584   0.314942   0.313789  -0.003859   0.002353
     7  C   -0.133605  -0.143985  -0.032770   0.113888   0.048670  -0.014607
     8  C   -0.145486  -0.133418   0.114399  -0.033725   0.024447  -0.043290
     9  C   -0.323347   0.097067  -0.106158  -0.205900  -0.046665   0.004905
    10  C    0.098308  -0.322907  -0.205488  -0.106092  -0.002101  -0.005090
    11  C    0.000303  -0.003460  -0.000057  -0.000913  -0.041751  -0.073994
    12  C   -0.003410   0.000304  -0.000941  -0.000042   0.013114  -0.015759
    13  C    6.007897   0.085184  -0.434412   0.078249   0.000429  -0.000002
    14  C    0.085184   6.005083   0.077464  -0.433026  -0.001551   0.000693
    15  C   -0.434412   0.077464   6.382368   0.249312  -0.000734   0.000011
    16  C    0.078249  -0.433026   0.249312   6.382331   0.000287   0.000112
    17  H    0.000429  -0.001551  -0.000734   0.000287   0.712283  -0.055511
    18  H   -0.000002   0.000693   0.000011   0.000112  -0.055511   0.640051
    19  H   -0.001500   0.000458   0.000293  -0.000724  -0.010926   0.009146
    20  H    0.000681  -0.000010   0.000113   0.000010   0.009025  -0.003263
    21  H   -0.007349   0.012913   0.008865   0.000389  -0.045976   0.011633
    22  H    0.012863  -0.007313   0.000372   0.008769   0.003258  -0.003124
    23  H    0.018082  -0.002011  -0.031223   0.027923   0.007458  -0.000832
    24  H   -0.002319   0.018032   0.028154  -0.031132  -0.001093   0.000113
    25  H   -0.000091  -0.000524  -0.000127   0.000054   0.032851  -0.016657
    26  H   -0.000102   0.002037   0.000278  -0.000023  -0.027239   0.031997
    27  H    0.000053   0.000113  -0.000004  -0.000019  -0.003843  -0.014464
    28  H   -0.000514  -0.000082   0.000057  -0.000128  -0.013161  -0.000778
    29  H    0.002011  -0.000109  -0.000017   0.000274   0.004089   0.000422
    30  H    0.000110   0.000051  -0.000020  -0.000004   0.001672  -0.000609
    31  H    0.591775   0.016719  -0.194552   0.029301   0.000177   0.000001
    32  H    0.016562   0.591543   0.029432  -0.194414  -0.000470   0.000033
    33  H   -0.081473  -0.038354   0.392064  -0.005907  -0.000005   0.000000
    34  H   -0.038438  -0.081303  -0.005831   0.391865   0.000009  -0.000001
              19         20         21         22         23         24
     1  N   -0.035321  -0.117076  -0.039815  -0.039037  -0.005942  -0.006091
     2  N    0.000378  -0.000070  -0.006828  -0.006809  -0.046718  -0.046736
     3  C    0.070441   0.016156  -0.299253  -0.301670   0.059333   0.060227
     4  C   -0.041618   0.085054   0.042249   0.006744   0.008980  -0.005589
     5  C    0.302000   0.426968   0.007291   0.040340  -0.005652   0.009326
     6  C   -0.003528   0.002129   0.053939   0.055129  -0.014191  -0.015383
     7  C    0.023209  -0.042854   0.391761  -0.042011  -0.040937   0.061333
     8  C    0.045010  -0.014327  -0.042851   0.392434   0.061155  -0.040597
     9  C   -0.001940  -0.005015   0.156148  -0.007279   0.181128   0.041065
    10  C   -0.047615   0.004961  -0.007242   0.157222   0.040717   0.180366
    11  C    0.012262  -0.014890  -0.020731   0.000979  -0.000727  -0.000325
    12  C   -0.042129  -0.075149   0.000791  -0.019676  -0.000294  -0.000900
    13  C   -0.001500   0.000681  -0.007349   0.012863   0.018082  -0.002319
    14  C    0.000458  -0.000010   0.012913  -0.007313  -0.002011   0.018032
    15  C    0.000293   0.000113   0.008865   0.000372  -0.031223   0.028154
    16  C   -0.000724   0.000010   0.000389   0.008769   0.027923  -0.031132
    17  H   -0.010926   0.009025  -0.045976   0.003258   0.007458  -0.001093
    18  H    0.009146  -0.003263   0.011633  -0.003124  -0.000832   0.000113
    19  H    0.713647  -0.055687   0.003242  -0.045712  -0.001087   0.007453
    20  H   -0.055687   0.640880  -0.003105   0.011477   0.000114  -0.000809
    21  H    0.003242  -0.003105   0.739225  -0.007942  -0.081498   0.007201
    22  H   -0.045712   0.011477  -0.007942   0.738474   0.007187  -0.081383
    23  H   -0.001087   0.000114  -0.081498   0.007187   0.752056  -0.017672
    24  H    0.007453  -0.000809   0.007201  -0.081383  -0.017672   0.752240
    25  H   -0.012964  -0.001004  -0.011507   0.003192   0.001597  -0.000466
    26  H    0.004087   0.000521   0.022685  -0.003640  -0.003377   0.000579
    27  H    0.001638  -0.000608   0.001476  -0.000255  -0.000644  -0.000008
    28  H    0.033194  -0.016751   0.003230  -0.011481  -0.000469   0.001598
    29  H   -0.027207   0.032167  -0.003656   0.022010   0.000579  -0.003306
    30  H   -0.004160  -0.014398  -0.000267   0.001652  -0.000006  -0.000657
    31  H   -0.000460   0.000030  -0.001392   0.003523   0.004161  -0.023476
    32  H    0.000178   0.000001   0.003547  -0.001387  -0.023450   0.004163
    33  H    0.000009  -0.000001   0.000033   0.000013  -0.000126   0.001831
    34  H   -0.000005   0.000000   0.000014   0.000033   0.001822  -0.000126
              25         26         27         28         29         30
     1  N    0.015900  -0.022918   0.031923   0.014512  -0.022343   0.032003
     2  N   -0.000020   0.000380   0.000011  -0.000021   0.000392   0.000010
     3  C    0.006302   0.002066  -0.022532   0.009273   0.000593  -0.022692
     4  C   -0.005499   0.078747  -0.095305  -0.047068   0.031492   0.003067
     5  C   -0.047309   0.032102   0.003036  -0.003811   0.079707  -0.096457
     6  C   -0.000814  -0.013011   0.004384  -0.000800  -0.012895   0.004347
     7  C   -0.014641  -0.013504   0.039018   0.038709  -0.063340  -0.003020
     8  C    0.038981  -0.064139  -0.003079  -0.016495  -0.012855   0.038712
     9  C   -0.007983   0.008492   0.006866   0.005748  -0.017496  -0.000866
    10  C    0.005698  -0.017622  -0.000883  -0.008362   0.008627   0.006933
    11  C    0.350565   0.332971   0.403180   0.009240  -0.002218  -0.001619
    12  C    0.009552  -0.002567  -0.001599   0.349043   0.331982   0.404682
    13  C   -0.000091  -0.000102   0.000053  -0.000514   0.002011   0.000110
    14  C   -0.000524   0.002037   0.000113  -0.000082  -0.000109   0.000051
    15  C   -0.000127   0.000278  -0.000004   0.000057  -0.000017  -0.000020
    16  C    0.000054  -0.000023  -0.000019  -0.000128   0.000274  -0.000004
    17  H    0.032851  -0.027239  -0.003843  -0.013161   0.004089   0.001672
    18  H   -0.016657   0.031997  -0.014464  -0.000778   0.000422  -0.000609
    19  H   -0.012964   0.004087   0.001638   0.033194  -0.027207  -0.004160
    20  H   -0.001004   0.000521  -0.000608  -0.016751   0.032167  -0.014398
    21  H   -0.011507   0.022685   0.001476   0.003230  -0.003656  -0.000267
    22  H    0.003192  -0.003640  -0.000255  -0.011481   0.022010   0.001652
    23  H    0.001597  -0.003377  -0.000644  -0.000469   0.000579  -0.000006
    24  H   -0.000466   0.000579  -0.000008   0.001598  -0.003306  -0.000657
    25  H    0.631494  -0.054834  -0.032283  -0.002576   0.000237   0.000633
    26  H   -0.054834   0.643491  -0.038201   0.000269   0.001211  -0.000434
    27  H   -0.032283  -0.038201   0.604507   0.000626  -0.000429  -0.000040
    28  H   -0.002576   0.000269   0.000626   0.632532  -0.054929  -0.032505
    29  H    0.000237   0.001211  -0.000429  -0.054929   0.643108  -0.038011
    30  H    0.000633  -0.000434  -0.000040  -0.032505  -0.038011   0.604401
    31  H    0.000036  -0.000062   0.000004  -0.000139   0.000386   0.000069
    32  H   -0.000141   0.000402   0.000069   0.000038  -0.000062   0.000004
    33  H   -0.000001   0.000004  -0.000000   0.000003  -0.000011  -0.000001
[...]
 36,0.00017121,0.00010471,0.00049160,0.00050338,-0.00070635,0.00101376,
 -0.00138831,0.00325896,-0.00001390,0.00004033,0.00002472,-0.00006883,0
 .00033625,0.00018015,-0.00000752,0.00000521,-0.00000734,-0.00002699,-0
 .00000689,-0.00000900,0.00004438,0.00001527,-0.00009572,0.00002134,-0.
 00006916,0.00003129,0.00003420,0.00001384,-0.00003632,-0.01423415,-0.0
 0560995,0.00778329,0.07618782,0.07250442,-0.00113670,-0.00181244,0.001
 89526,0.00007420,-0.00004254,-0.00000756,0.00085366,0.00032498,0.00008
 777,-0.00016515,-0.00004456,0.00004572,0.02507169,0.00792022,-0.012916
 74,-0.00010009,-0.00011822,-0.00005786,-0.00039989,0.00013257,-0.00006
 196,-0.00042409,0.00062062,0.00016790,0.00025492,-0.00000256,-0.000030
 30,-0.00003295,-0.00025777,0.00002581,0.00010846,-0.00016956,-0.000125
 80,0.09778942,0.03420671,-0.09310314,-0.00003382,-0.00002034,-0.000022
 38,-0.00002093,0.00002025,0.00002845,0.00001829,-0.00001015,0.00000037
 ,0.00002646,0.00000401,-0.00000289,-0.00001296,0.00001832,0.00002450,-
 0.00000412,-0.00004415,-0.00004736,0.00019684,-0.00069907,0.00090759,-
 0.00177158,0.00324093,-0.00378958,0.00002676,-0.00007363,-0.00000231,-
 0.00070793,-0.00016845,-0.00079027,-0.00000276,-0.00001025,0.00001407,
 -0.00002326,0.00001336,0.00001921,-0.00006856,-0.00003349,0.00009501,-
 0.00001693,0.00003129,0.00002211,-0.00004153,-0.00000205,0.00004799,-0
 .01901464,-0.00591777,0.00958376,-0.10599050,-0.03958096,0.10204136,-0
 .00001264,0.00159521,-0.00149778,-0.00014539,0.00000997,-0.00000838,0.
 00129968,-0.00022396,0.00022339,-0.00034579,-0.00016723,-0.00040150,-0
 .00380530,0.00251858,0.00292498,0.00008089,-0.00012400,0.00003008,-0.0
 0024162,0.00012505,0.00012964,-0.00000903,-0.00035961,-0.00016195,0.00
 013069,0.00006846,0.00000288,-0.00003614,0.00012320,0.00001117,0.00017
 514,0.00017511,0.00006594,-0.12405987,0.11744371,0.03674074,0.00006223
 ,0.00005886,0.00004080,0.00006383,-0.00005897,-0.00004209,-0.00005785,
 0.00001035,0.00002435,-0.00005498,-0.00001594,-0.00002154,-0.00002710,
 0.00003194,0.00000327,0.00015488,0.00012231,-0.00005958,-0.00012225,-0
 .00018068,-0.00014434,0.00016267,0.00010403,-0.00025797,0.00000161,0.0
 0001219,-0.00000120,-0.00014097,0.00025856,0.00003829,-0.00000855,0.00
 001167,-0.00001648,-0.00002830,-0.00000738,-0.00000719,-0.00000426,-0.
 00001986,0.00001558,-0.00002083,-0.00003410,0.00004149,0.00002841,0.00
 006030,-0.00004594,0.00942016,-0.01441181,-0.00347115,-0.01305851,0.02
 236027,0.00554900,0.13060045,0.00327304,-0.00361858,0.00392535,0.00023
 183,0.00000217,0.00002255,-0.00252527,-0.00041163,0.00026030,0.0007693
 7,0.00089918,0.00034641,0.00735472,-0.01129687,-0.00847774,-0.00004095
 ,0.00012951,0.00001420,0.00065162,-0.00035106,-0.00013918,0.00023242,0
 .00031104,0.00001863,-0.00024653,-0.00005021,-0.00007440,-0.00000788,-
 0.00003952,-0.00007668,-0.00007588,-0.00013299,-0.00008614,0.11720810,
 -0.22201163,-0.05394680,-0.00009790,-0.00009974,-0.00005990,-0.0001040
 3,0.00009895,0.00005832,0.00009319,-0.00001954,-0.00004307,0.00009212,
 0.00002455,0.00004054,0.00001765,-0.00003794,-0.00000030,-0.00009641,0
 .00024955,-0.00019616,0.00024592,0.00055977,0.00011324,-0.00060715,-0.
 00000932,-0.00015306,-0.00001703,0.00001250,0.00004688,0.00001974,-0.0
 0000568,0.00006669,0.00002358,-0.00001954,0.00000126,0.00002795,0.0000
 1767,-0.00000091,-0.00001660,0.00002435,0.00004722,0.00000912,0.000013
 90,-0.00000216,-0.00006026,-0.00006783,0.00004986,0.00878847,-0.012768
 11,-0.00293021,-0.00565424,0.00917170,0.00247247,-0.12949145,0.2394301
 7,-0.00276635,0.00498569,-0.00329235,-0.00003645,-0.00000451,-0.000015
 49,0.00125858,0.00069547,-0.00035221,-0.00072426,-0.00006927,-0.000545
 51,-0.01374810,0.01926942,0.00988039,-0.00005687,-0.00009850,-0.000021
 09,-0.00049623,0.00015234,0.00015493,-0.00013671,-0.00017331,0.0000107
 5,0.00015846,0.00008835,0.00009897,-0.00002912,-0.00000738,0.00005826,
 0.00016589,0.00018408,0.00012273,0.03713587,-0.05501921,-0.06425143,0.
 00001708,0.00002502,0.00001007,0.00001902,-0.00002278,-0.00000890,-0.0
 0002067,0.00000411,0.00001282,-0.00002249,-0.00000711,-0.00001124,-0.0
 0000569,0.00009392,-0.00001290,0.00026433,0.00002113,-0.00004709,-0.00
 017378,-0.00116409,0.00088483,0.00081725,-0.00050966,0.00096812,0.0000
 1539,0.00000203,-0.00005534,0.00000878,-0.00012025,-0.00010209,-0.0000
 1995,0.00000770,-0.00001177,-0.00001130,-0.00000510,0.00000219,0.00001
 083,-0.00001571,0.00000282,-0.00001866,-0.00003610,0.00004783,0.000045
 77,0.00004960,-0.00006981,0.01263027,-0.01606754,-0.00523347,0.0054221
 3,-0.01095981,-0.00404118,-0.03970009,0.05869859,0.06581923,0.00019681
 ,-0.00000763,0.00000376,0.01002839,-0.01427472,-0.01669564,-0.00021234
 ,0.00023907,0.00005754,-0.00002932,-0.00005990,-0.00001735,-0.00002526
 ,0.00004516,0.00000396,0.00178590,0.00028096,0.00020250,0.00029238,-0.
 00007197,-0.00003599,-0.00026256,-0.00004754,0.00010021,-0.00022886,-0
 .00022831,0.00013157,-0.00026849,0.00028256,-0.00013045,0.00000175,0.0
 0001171,-0.00000080,0.00000405,-0.00000859,0.00000024,-0.11041963,0.07
 850132,0.09232420,-0.00395617,-0.00175362,-0.00182065,0.00290357,0.014
 54759,0.01663422,-0.00500830,0.00127329,0.00127722,-0.00000985,0.00000
 227,-0.00000107,0.00001513,0.00000242,-0.00000022,-0.00000223,-0.00000
 198,0.00000471,0.00001412,-0.00000262,-0.00000156,0.00001382,0.0000064
 2,-0.00000162,0.00000372,-0.00000623,-0.00005093,0.00001784,0.00005297
 ,-0.00002280,-0.00062031,0.00009715,-0.00074200,0.00000202,-0.00000406
 ,-0.00000102,-0.00000159,-0.00000587,0.00000464,0.00000630,0.00000957,
 -0.00000056,0.00000244,0.00000412,0.00000271,-0.00000279,0.00000566,-0
 .00000536,0.00000693,-0.00000937,0.00000052,0.10421901,0.00011425,-0.0
 0005683,-0.00000688,0.00802194,-0.01057687,-0.00956429,-0.00014818,0.0
 0038410,0.00001693,-0.00001162,-0.00001551,-0.00002833,-0.00001654,0.0
 0003821,0.00001154,0.00188794,-0.00066892,0.00126600,0.00037797,-0.000
 21445,-0.00004688,-0.00034070,-0.00015032,0.00014207,-0.00073731,-0.00
 045849,-0.00004058,0.00031202,0.00035688,0.00037427,-0.00000888,0.0000
 0817,-0.00000095,0.00000953,-0.00000536,-0.00000371,0.07083945,-0.1436
 4575,-0.13993880,-0.00345263,0.00075522,-0.00131061,-0.00043090,0.0012
 5116,-0.00105940,0.00086211,0.00306356,-0.00131701,-0.00001112,-0.0000
 0079,0.00000196,0.00000616,-0.00000464,0.00000112,0.00000435,-0.000001
 73,-0.00000525,0.00000120,-0.00000625,-0.00000232,-0.00001335,-0.00000
 689,-0.00000090,0.00001312,-0.00000593,0.00000485,0.00003066,0.0000113
 5,0.00000353,0.00053430,0.00005784,0.00009056,-0.00000114,-0.00000063,
 -0.00000030,0.00000437,-0.00000526,-0.00000073,0.00000249,0.00000304,0
 .00000123,-0.00000158,-0.00000005,0.00000123,-0.00000613,0.00000348,0.
 00000153,0.00000616,-0.00000674,0.00000115,-0.07870108,0.15035283,-0.0
 0001231,0.00006978,0.00000749,0.00900623,-0.00769050,-0.01153329,0.000
 05254,0.00003822,-0.00002475,-0.00000535,-0.00003255,-0.00000116,-0.00
 000380,-0.00001189,-0.00000292,0.00131884,0.00098051,-0.00059382,0.000
 11715,0.00008704,0.00004248,-0.00009389,0.00033423,0.00007993,-0.00024
 387,-0.00007855,0.00008784,-0.00006266,-0.00071283,0.00000981,0.000003
 97,0.00000459,-0.00000145,-0.00000820,-0.00000130,0.00000571,0.0851741
 5,-0.14152182,-0.18718513,-0.00257954,-0.00151676,0.00009592,-0.001965
 41,-0.00004854,0.00217493,0.00001618,-0.00192566,0.00199449,-0.0000048
 4,0.00000103,-0.00000405,0.00000817,0.00000302,-0.00000186,-0.00000486
 ,0.00000151,0.00001483,0.00001034,0.00000610,0.00000009,-0.00000368,0.
 00001006,-0.00002376,-0.00003310,-0.00001596,0.00001482,0.00001808,0.0
 0008742,-0.00001326,-0.00055510,0.00050358,-0.00029392,0.00000317,-0.0
 0000320,-0.00000023,-0.00000434,-0.00000372,0.00000546,0.00000466,0.00
 000527,-0.00000081,0.00000556,0.00000472,0.00000135,0.00000226,0.00000
 329,-0.00001150,0.00000162,-0.00000210,-0.00000124,-0.09104732,0.15172
 626,0.19546437,0.00019683,0.00000753,-0.00000342,0.01002278,0.01428000
 ,0.01671129,-0.00021226,-0.00023921,-0.00005772,-0.00002526,-0.0000451
 5,-0.00000402,-0.00002933,0.00005994,0.00001736,0.00178727,-0.00028163
 ,-0.00020087,-0.00026266,0.00004734,-0.00010040,0.00029252,0.00007199,
 0.00003610,-0.00026835,-0.00028218,0.00012994,-0.00022903,0.00022851,-
 0.00013175,0.00000406,0.00000863,-0.00000025,0.00000174,-0.00001168,0.
 00000078,-0.00395923,0.00175445,0.00181805,-0.11029196,-0.07839226,-0.
 09227526,-0.00500750,-0.00127102,-0.00128306,0.00291410,-0.01454830,-0
 .01663315,-0.00000223,0.00000198,-0.00000472,0.00001412,0.00000262,0.0
 0000154,-0.00000986,-0.00000227,0.00000106,0.00001514,-0.00000242,0.00
 000021,0.00000366,0.00000624,0.00005090,0.00001381,-0.00000643,0.00000
 164,-0.00062089,-0.00009765,0.00074160,0.00001783,-0.00005302,0.000022
 83,0.00000244,-0.00000413,-0.00000271,-0.00000279,-0.00000567,0.000005
 38,0.00000693,0.00000937,-0.00000053,0.00000202,0.00000406,0.00000102,
 -0.00000160,0.00000586,-0.00000463,0.00000631,-0.00000958,0.00000055,0
 .00078958,0.00048275,0.00044666,0.10408734,-0.00011416,-0.00005680,-0.
 00000708,-0.00801351,-0.01057577,-0.00956789,0.00014803,0.00038403,0.0
 0001705,0.00001655,0.00003823,0.00001160,0.00001163,-0.00001552,-0.000
 02831,-0.00188853,-0.00066926,0.00126515,0.00034058,-0.00015031,0.0001
 4213,-0.00037782,-0.00021442,-0.00004703,-0.00031222,0.00035690,0.0003
 7404,0.00073734,-0.00045838,-0.00004014,-0.00000953,-0.00000540,-0.000
 00371,0.00000886,0.00000816,-0.00000095,0.00345125,0.00075459,-0.00130
 980,-0.07073539,-0.14362487,-0.13998883,-0.00085942,0.00306244,-0.0013
 1889,0.00043372,0.00125365,-0.00105576,-0.00000435,-0.00000174,-0.0000
 0525,-0.00000121,-0.00000625,-0.00000230,0.00001113,-0.00000079,0.0000
 0196,-0.00000616,-0.00000464,0.00000111,-0.00001312,-0.00000592,0.0000
 0485,0.00001337,-0.00000689,-0.00000091,-0.00053432,0.00005754,0.00009
 024,-0.00003068,0.00001135,0.00000351,0.00000158,-0.00000005,0.0000012
 3,0.00000613,0.00000348,0.00000153,-0.00000616,-0.00000674,0.00000116,
 0.00000114,-0.00000062,-0.00000030,-0.00000436,-0.00000526,-0.00000073
 ,-0.00000249,0.00000304,0.00000123,-0.00048166,0.00082612,-0.00139885,
 0.07858514,0.15033053,0.00001236,0.00006974,0.00000759,-0.00899251,-0.
 00768235,-0.01152856,-0.00005258,0.00003812,-0.00002485,0.00000376,-0.
 00001193,-0.00000291,0.00000536,-0.00003250,-0.00000121,-0.00131718,0.
 00098008,-0.00059466,0.00009369,0.00033420,0.00007991,-0.00011704,0.00
 008706,0.00004244,0.00006245,-0.00071293,0.00000986,0.00024369,-0.0000
 7843,0.00008788,0.00000820,-0.00000128,0.00000571,-0.00000396,0.000004
 57,-0.00000143,0.00257882,-0.00151377,0.00009969,-0.08512212,-0.141572
 54,-0.18733318,-0.00002285,-0.00192542,0.00199473,0.00196396,-0.000062
 17,0.00216220,0.00000486,0.00000153,0.00001483,-0.00001033,0.00000610,
 0.00000008,0.00000483,0.00000103,-0.00000405,-0.00000816,0.00000301,-0
 .00000185,0.00003309,-0.00001595,0.00001486,0.00000369,0.00001005,-0.0
 0002375,0.00055462,0.00050350,-0.00029304,-0.00001805,0.00008738,-0.00
 001326,-0.00000556,0.00000472,0.00000135,-0.00000226,0.00000328,-0.000
 01151,-0.00000161,-0.00000209,-0.00000124,-0.00000317,-0.00000320,-0.0
 0000024,0.00000434,-0.00000370,0.00000543,-0.00000466,0.00000527,-0.00
 000081,-0.00044666,-0.00139821,0.00071178,0.09098822,0.15177938,0.1956
 1693,-0.00028089,0.00000992,0.00000177,-0.00506735,0.00119832,0.001250
 38,0.00025345,-0.00000219,-0.00000498,0.00003424,0.00006622,0.00001084
 ,0.00003470,-0.00007896,-0.00001995,0.00045337,-0.00079115,-0.00068112
 ,-0.00010303,-0.00002011,0.00006837,-0.00010533,-0.00004912,0.00001489
 ,-0.00030123,0.00016299,-0.00007052,-0.00000304,-0.00009796,0.00003010
 ,-0.00000170,-0.00001244,-0.00000118,-0.00000193,0.00001435,0.00000313
 ,-0.00962940,-0.01289403,-0.01448583,0.00024868,0.00114326,0.00120165,
 -0.25095109,-0.09605018,-0.10829530,0.00655972,0.00268344,0.00299312,0
 .00000260,-0.00000445,0.00000108,-0.00001581,-0.00000580,-0.00000194,0
 .00000695,0.00000765,0.00000204,-0.00001745,0.00000470,0.00000093,-0.0
 0003876,-0.00000908,0.00000621,-0.00002584,0.00001266,-0.00000141,0.00
 001609,-0.00000243,-0.00002816,0.00002067,0.00000799,-0.00002256,-0.00
 000385,0.00000526,0.00000143,0.00000296,0.00000458,-0.00000539,-0.0000
 0611,-0.00001007,0.00000197,-0.00000102,-0.00000378,-0.00000024,0.0000
 0287,-0.00000640,0.00000329,-0.00000841,0.00001161,-0.00000207,0.00034
 103,0.00037529,0.00043642,0.00040357,0.00000549,-0.00000253,0.25833325
 ,-0.00014101,-0.00001546,0.00000511,0.00246166,0.00268010,-0.00230792,
 0.00010780,0.00011665,-0.00001346,0.00002015,0.00003701,0.00000331,0.0
 0001434,-0.00002944,-0.00001293,0.00006594,0.00171779,-0.00063184,0.00
 010434,0.00010057,0.00009337,-0.00013018,-0.00008079,0.00003693,0.0003
 2845,-0.00013467,0.00007040,-0.00005560,-0.00011527,0.00005180,-0.0000
 0446,-0.00000541,-0.00000003,0.00000229,0.00000625,0.00000225,0.006207
 67,0.00455133,0.00504085,0.00070943,-0.00107776,-0.00490934,-0.0979631
 3,-0.08882162,-0.06829081,-0.01570636,-0.00267317,-0.00301516,-0.00000
 161,-0.00000343,-0.00000356,-0.00000423,-0.00000518,-0.00000194,0.0000
 0483,0.00000312,0.00000056,-0.00000882,0.00000087,0.00000070,0.0000284
 0,-0.00000432,0.00000287,-0.00000363,0.00000028,0.00001047,0.00002035,
 -0.00000261,-0.00007633,0.00003553,0.00000298,-0.00002833,0.00000016,0
 .00000209,0.00000033,0.00000290,0.00000116,-0.00000029,-0.00000318,-0.
 00000555,0.00000116,-0.00000040,-0.00000203,-0.00000090,-0.00000062,-0
 .00000177,0.00000170,-0.00000162,0.00000440,-0.00000067,-0.00061786,-0
 .00197083,0.00158383,-0.00092035,0.00069059,-0.00048683,0.10488726,0.0
 8592112,0.00010383,0.00001296,-0.00000564,0.00275553,-0.00250846,0.002
 11200,-0.00006968,-0.00007405,0.00001698,-0.00001108,-0.00002526,-0.00
 000438,-0.00000540,0.00001713,0.00001078,0.00013419,-0.00080401,0.0012
 6267,-0.00003273,-0.00001852,-0.00008174,0.00008944,0.00007500,-0.0000
 4193,-0.00015760,-0.00002806,-0.00004341,0.00000472,0.00011930,-0.0000
 8803,0.00000416,0.00000365,0.00000168,-0.00000106,-0.00000379,-0.00000
 474,0.00655522,0.00501279,0.00575356,0.00025181,-0.00467204,-0.0017137
 0,-0.10994770,-0.06882304,-0.10420534,-0.01679067,-0.00229594,-0.00289
 744,0.00000400,0.00000384,0.00000684,-0.00000131,0.00000515,0.00000150
 ,-0.00000223,-0.00000350,-0.00000351,0.00000350,-0.00000109,-0.0000004
 0,-0.00000719,0.00000117,-0.00001165,0.00000363,0.00000218,-0.00001062
 ,-0.00000606,0.00007747,0.00004192,-0.00003132,-0.00002868,0.00004675,
 -0.00000079,-0.00000020,0.00000149,-0.00000179,0.00000121,-0.00000282,
 0.00000070,0.00000193,-0.00000188,-0.00000012,0.00000004,-0.00000052,0
 .00000092,-0.00000141,0.00000134,-0.00000068,-0.00000092,0.00000186,-0
 .00065242,0.00164488,-0.00161853,-0.00092663,-0.00056402,0.00059947,0.
 11816492,0.07134272,0.10145959,-0.00028078,-0.00000981,-0.00000229,-0.
 00506452,-0.00119575,-0.00125617,0.00025338,0.00000221,0.00000527,0.00
 003468,0.00007891,0.00001997,0.00003423,-0.00006622,-0.00001080,0.0004
 5299,0.00079210,0.00068023,-0.00010525,0.00004904,-0.00001491,-0.00010
 302,0.00002015,-0.00006834,-0.00000300,0.00009786,-0.00003000,-0.00030
 146,-0.00016301,0.00007040,-0.00000193,-0.00001438,-0.00000311,-0.0000
 0170,0.00001240,0.00000119,0.00024966,-0.00113982,-0.00120042,-0.00963
 502,0.01288966,0.01447560,0.00654989,-0.00268252,-0.00298580,-0.251106
 74,0.09611601,0.10817554,0.00000694,-0.00000765,-0.00000203,-0.0000174
 3,-0.00000470,-0.00000091,0.00000260,0.00000446,-0.00000107,-0.0000158
 3,0.00000580,0.00000196,-0.00002583,-0.00001266,0.00000140,-0.00003877
 ,0.00000908,-0.00000623,0.00002062,-0.00000797,0.00002253,0.00001606,0
 .00000236,0.00002812,-0.00000103,0.00000378,0.00000023,0.00000286,0.00
 000640,-0.00000330,-0.00000840,-0.00001161,0.00000208,-0.00000385,-0.0
 0000526,-0.00000143,0.00000296,-0.00000458,0.00000538,-0.00000611,0.00
 001007,-0.00000195,0.00040291,-0.00000492,0.00000225,0.00034089,-0.000
 37684,-0.00043469,-0.00015191,0.00056156,0.00056990,0.25850188,0.00014
 105,-0.00001553,0.00000540,-0.00245968,0.00268165,-0.00230842,-0.00010
 784,0.00011670,-0.00001363,-0.00001435,-0.00002943,-0.00001295,-0.0000
 2016,0.00003702,0.00000327,-0.00006568,0.00171759,-0.00063212,0.000130
 21,-0.00008080,0.00003700,-0.00010441,0.00010054,0.00009334,0.00005553
 ,-0.00011533,0.00005184,-0.00032842,-0.00013463,0.00007020,-0.00000230
 ,0.00000626,0.00000225,0.00000445,-0.00000539,-0.00000004,-0.00070677,
 -0.00107797,-0.00490997,-0.00621051,0.00454982,0.00503455,0.01570853,-
 0.00267506,-0.00300419,0.09802801,-0.08883101,-0.06822106,-0.00000483,
 0.00000312,0.00000055,0.00000881,0.00000087,0.00000069,0.00000162,-0.0
 0000344,-0.00000357,0.00000423,-0.00000519,-0.00000196,0.00000363,0.00
 000028,0.00001048,-0.00002839,-0.00000432,0.00000285,-0.00003553,0.000
 00299,-0.00002836,-0.00002030,-0.00000263,-0.00007635,0.00000041,-0.00
 000203,-0.00000090,0.00000062,-0.00000177,0.00000170,0.00000162,0.0000
 0440,-0.00000068,-0.00000016,0.00000209,0.00000034,-0.00000290,0.00000
 116,-0.00000028,0.00000318,-0.00000555,0.00000115,0.00092078,0.0006902
 9,-0.00048625,0.00061656,-0.00197100,0.00158427,-0.00056285,-0.0008870
 1,0.00153156,-0.10495417,0.08593330,-0.00010406,0.00001302,-0.00000590
 ,-0.00276090,-0.00251031,0.00210771,0.00006988,-0.00007408,0.00001713,
 0.00000544,0.00001718,0.00001082,0.00001110,-0.00002532,-0.00000436,-0
 .00013466,-0.00080321,0.00126322,-0.00008952,0.00007504,-0.00004199,0.
 00003268,-0.00001847,-0.00008178,-0.00000463,0.00011943,-0.00008806,0.
 00015737,-0.00002826,-0.00004326,0.00000106,-0.00000381,-0.00000474,-0
 .00000415,0.00000365,0.00000169,-0.00024970,-0.00467283,-0.00171446,-0
 .00656683,0.00502340,0.00576088,0.01679743,-0.00229786,-0.00288586,0.1
 0982849,-0.06875660,-0.10403970,0.00000224,-0.00000351,-0.00000350,-0.
 00000350,-0.00000109,-0.00000039,-0.00000399,0.00000385,0.00000685,0.0
 0000129,0.00000516,0.00000151,-0.00000365,0.00000218,-0.00001062,0.000
 00716,0.00000117,-0.00001165,0.00003131,-0.00002869,0.00004679,0.00000
 603,0.00007749,0.00004195,0.00000012,0.00000005,-0.00000052,-0.0000009
 1,-0.00000141,0.00000135,0.00000068,-0.00000092,0.00000187,0.00000079,
 -0.00000021,0.00000149,0.00000179,0.00000120,-0.00000282,-0.00000071,0
 .00000194,-0.00000188,0.00092640,-0.00056398,0.00060040,0.00065400,0.0
 0164456,-0.00161819,-0.00056941,0.00153197,-0.00058214,-0.11803863,0.0
 7126928,0.10127818\\-0.00000219,-0.00000104,0.00001069,-0.00001234,0.0
 0001295,-0.00001216,0.00000647,0.00000252,-0.00000080,0.00000225,0.000
 00334,-0.00000707,0.00000257,-0.00000293,-0.00000120,0.00000568,0.0000
 0393,-0.00000277,0.00000040,-0.00000132,0.00000303,-0.00000226,-0.0000
 0010,-0.00000415,0.00000046,-0.00000229,0.00000014,-0.00000153,0.00000
 121,-0.00000057,-0.00000006,-0.00000036,0.00000478,0.00000033,0.000000
 57,-0.00000432,0.00000778,-0.00001251,0.00001657,0.00000818,-0.0000119
 5,0.00000535,-0.00000409,0.00001166,-0.00001239,-0.00000391,-0.0000037
 4,0.00000463,-0.00000094,0.00000032,0.00000115,0.00000009,0.00000066,0
 .00000286,-0.00000085,-0.00000065,-0.00000223,0.00000036,-0.00000127,-
 0.00000195,-0.00000190,0.00000133,0.00000055,-0.00000287,-0.00000043,-
 0.00000090,-0.00000306,0.00000175,0.00000248,-0.00000391,-0.00000166,-
 0.00000291,0.00000019,0.00000264,0.00000144,-0.00000047,0.00000140,0.0
 0000234,-0.00000025,-0.00000031,0.00000092,-0.00000029,-0.00000220,-0.
 00000154,0.00000067,-0.00000132,-0.00000191,-0.00000024,0.00000025,-0.
 00000100,0.00000216,-0.00000246,0.00000026,0.00000134,-0.00000007,0.00
 000247,0.00000106,0.00000038,-0.00000255,0.00000119,0.00000168,0.00000
 078\\\@
 The archive entry for this job was punched.


 A true friend is someone who is there for
 you when he'd rather be anywhere else.
                               -- Len Wein
 Job cpu time:       0 days  8 hours 26 minutes 32.9 seconds.
 Elapsed time:       0 days  0 hours 21 minutes 54.6 seconds.
 File lengths (MBytes):  RWF=    690 Int=      0 D2E=      0 Chk=     22 Scr=      1
 Normal termination of Gaussian 16 at Thu Dec  7 13:57:23 2023.
