 Entering Gaussian System, Link 0=g16
 Input=/home/exlonk/in_progress/3429.inp
 Output=/home/exlonk/in_progress/3429.log
 Initial command:
 /opt/gaussian/g16-c01/g16/l1.exe "/lustre/tmp/slurm/2183150/Gau-523703.inp" -scrdir="/lustre/tmp/slurm/2183150/"
 Default CPUs for threads: 0-3,7-9,13-15,19-20,22,24-27,31-33,37-39,43-44,46
 Default is to use a total of  26 processors:
                               26 via shared-memory
                                1 via Linda
 Entering Link 1 = /opt/gaussian/g16-c01/g16/l1.exe PID=    523704.
  
 Copyright (c) 1988-2019, Gaussian, Inc.  All Rights Reserved.
  
 This is part of the Gaussian(R) 16 program.  It is based on
 the Gaussian(R) 09 system (copyright 2009, Gaussian, Inc.),
 the Gaussian(R) 03 system (copyright 2003, Gaussian, Inc.),
 the Gaussian(R) 98 system (copyright 1998, Gaussian, Inc.),
 the Gaussian(R) 94 system (copyright 1995, Gaussian, Inc.),
 the Gaussian 92(TM) system (copyright 1992, Gaussian, Inc.),
 the Gaussian 90(TM) system (copyright 1990, Gaussian, Inc.),
 the Gaussian 88(TM) system (copyright 1988, Gaussian, Inc.),
 the Gaussian 86(TM) system (copyright 1986, Carnegie Mellon
 University), and the Gaussian 82(TM) system (copyright 1983,
 Carnegie Mellon University). Gaussian is a federally registered
 trademark of Gaussian, Inc.
  
 This software contains proprietary and confidential information,
 including trade secrets, belonging to Gaussian, Inc.
  
 This software is provided under written license and may be
 used, copied, transmitted, or stored only in accord with that
 written license.
  
 The following legend is applicable only to US Government
 contracts under FAR:
  
                    RESTRICTED RIGHTS LEGEND
  
 Use, reproduction and disclosure by the US Government is
 subject to restrictions as set forth in subparagraphs (a)
 and (c) of the Commercial Computer Software - Restricted
 Rights clause in FAR 52.227-19.
  
 Gaussian, Inc.
 340 Quinnipiac St., Bldg. 40, Wallingford CT 06492
  
  
 ---------------------------------------------------------------
 Warning -- This program may not be used in any manner that
 competes with the business of Gaussian, Inc. or will provide
 assistance to any competitor of Gaussian, Inc.  The licensee
 of this program is prohibited from giving any competitor of
 Gaussian, Inc. access to this program.  By using this program,
 the user acknowledges that Gaussian, Inc. is engaged in the
 business of creating and licensing software in the field of
 computational chemistry and represents and warrants to the
 licensee that it is not a competitor of Gaussian, Inc. and that
 it will not use this program in any manner prohibited above.
 ---------------------------------------------------------------
  

 Cite this work as:
 Gaussian 16, Revision C.01,
 M. J. Frisch, G. W. Trucks, H. B. Schlegel, G. E. Scuseria, 
 M. A. Robb, J. R. Cheeseman, G. Scalmani, V. Barone, 
 G. A. Petersson, H. Nakatsuji, X. Li, M. Caricato, A. V. Marenich, 
 J. Bloino, B. G. Janesko, R. Gomperts, B. Mennucci, H. P. Hratchian, 
 J. V. Ortiz, A. F. Izmaylov, J. L. Sonnenberg, D. Williams-Young, 
 F. Ding, F. Lipparini, F. Egidi, J. Goings, B. Peng, A. Petrone, 
 T. Henderson, D. Ranasinghe, V. G. Zakrzewski, J. Gao, N. Rega, 
 G. Zheng, W. Liang, M. Hada, M. Ehara, K. Toyota, R. Fukuda, 
 J. Hasegawa, M. Ishida, T. Nakajima, Y. Honda, O. Kitao, H. Nakai, 
 T. Vreven, K. Throssell, J. A. Montgomery, Jr., J. E. Peralta, 
 F. Ogliaro, M. J. Bearpark, J. J. Heyd, E. N. Brothers, K. N. Kudin, 
 V. N. Staroverov, T. A. Keith, R. Kobayashi, J. Normand, 
 K. Raghavachari, A. P. Rendell, J. C. Burant, S. S. Iyengar, 
 J. Tomasi, M. Cossi, J. M. Millam, M. Klene, C. Adamo, R. Cammi, 
 J. W. Ochterski, R. L. Martin, K. Morokuma, O. Farkas, 
 J. B. Foresman, and D. J. Fox, Gaussian, Inc., Wallingford CT, 2019.
 
 ******************************************
 Gaussian 16:  EM64L-G16RevC.01  3-Jul-2019
                 6-Dec-2023 
 ******************************************
 %nproc=26
 Will use up to   26 processors via shared memory.
 %mem=16GB
 %chk=/home/exlonk/in_progress/3429.chk
 ------------------------------
 #p MN15/6-311++G(d,p) opt freq
 ------------------------------
 1/18=20,19=15,26=3,38=1/1,3;
 2/9=110,12=2,17=6,18=5,40=1/2;
 3/5=4,6=6,7=1111,11=2,25=1,30=1,71=1,74=-73/1,2,3;
 4//1;
 5/5=2,38=5/2;
 6/7=2,8=2,9=2,10=2,28=1/1;
 7//1,2,3,16;
 1/18=20,19=15,26=3/3(2);
 2/9=110/2;
 99//99;
 2/9=110/2;
 3/5=4,6=6,7=1111,11=2,25=1,30=1,71=1,74=-73/1,2,3;
 4/5=5,16=3,69=1/1;
 5/5=2,38=5/2;
 7//1,2,3,16;
 1/18=20,19=15,26=3/3(-5);
 2/9=110/2;
 6/7=2,8=2,9=2,10=2,19=2,28=1/1;
 99/9=1/99;
 Leave Link    1 at Wed Dec  6 05:49:34 2023, MaxMem=  2147483648 cpu:               4.5 elap:               0.2
 (Enter /opt/gaussian/g16-c01/g16/l101.exe)
 ---------------
 name file: 3429
 ---------------
 Symbolic Z-matrix:
 Charge =  0 Multiplicity = 1
 S                     0.9831    1.534     0.3587 
 N                     0.9838   -0.9773   -0.2292 
 N                    -4.0969    2.3488   -0.3021 
 N                    -3.9708   -2.4739    0.2793 
 C                    -1.2387    0.0124    0.0048 
 C                     0.2045    0.0509    0.0126 
 C                     2.5138    0.7617    0.1759 
 C                     2.3115   -0.5853   -0.1393 
 C                    -1.9033   -1.2051    0.1451 
 C                    -1.9661    1.1928   -0.1433 
 C                    -3.3603    1.1553   -0.1512 
 C                    -3.2976   -1.2425    0.1371 
 C                    -4.0261   -0.0622   -0.0111 
 C                     3.801     1.3086    0.3024 
 C                     3.439    -1.4123   -0.3342 
 C                     4.8996    0.4685    0.1044 
 C                     4.7233   -0.8745   -0.2099 
 H                    -1.3456   -2.1319    0.2647 
 H                    -1.4977    2.1629   -0.2835 
 H                    -5.1137   -0.0914   -0.0175 
 H                     3.9462    2.3561    0.5476 
 H                     3.3128   -2.4628   -0.5799 
 H                     5.9046    0.8717    0.1976 
 H                     5.5897   -1.5128   -0.3603 
 H                    -5.1079    2.3223   -0.306 
 H                    -3.6156    3.2327   -0.4015 
 H                    -3.4432   -3.3301    0.3861 
 H                    -4.9817   -2.5018    0.2729 
 
 ITRead=  0  0  0  0  0  0  0  0  0  0  0  0  0  0  0  0  0  0  0  0
 ITRead=  0  0  0  0  0  0  0  0
 MicOpt= -1 -1 -1 -1 -1 -1 -1 -1 -1 -1 -1 -1 -1 -1 -1 -1 -1 -1 -1 -1
 MicOpt= -1 -1 -1 -1 -1 -1 -1 -1
 NAtoms=     28 NQM=       28 NQMF=       0 NMMI=      0 NMMIF=      0
                NMic=       0 NMicF=      0.
                    Isotopes and Nuclear Properties:
 (Nuclear quadrupole moments (NQMom) in fm**2, nuclear magnetic moments (NMagM)
  in nuclear magnetons)

  Atom         1           2           3           4           5           6           7           8           9          10
 IAtWgt=          32          14          14          14          12          12          12          12          12          12
 AtmWgt=  31.9720718  14.0030740  14.0030740  14.0030740  12.0000000  12.0000000  12.0000000  12.0000000  12.0000000  12.0000000
 NucSpn=           0           2           2           2           0           0           0           0           0           0
 AtZEff=  -0.0000000  -0.0000000  -0.0000000  -0.0000000  -0.0000000  -0.0000000  -0.0000000  -0.0000000  -0.0000000  -0.0000000
 NQMom=    0.0000000   2.0440000   2.0440000   2.0440000   0.0000000   0.0000000   0.0000000   0.0000000   0.0000000   0.0000000
 NMagM=    0.0000000   0.4037610   0.4037610   0.4037610   0.0000000   0.0000000   0.0000000   0.0000000   0.0000000   0.0000000
 AtZNuc=  16.0000000   7.0000000   7.0000000   7.0000000   6.0000000   6.0000000   6.0000000   6.0000000   6.0000000   6.0000000

  Atom        11          12          13          14          15          16          17          18          19          20
 IAtWgt=          12          12          12          12          12          12          12           1           1           1
 AtmWgt=  12.0000000  12.0000000  12.0000000  12.0000000  12.0000000  12.0000000  12.0000000   1.0078250   1.0078250   1.0078250
 NucSpn=           0           0           0           0           0           0           0           1           1           1
 AtZEff=  -0.0000000  -0.0000000  -0.0000000  -0.0000000  -0.0000000  -0.0000000  -0.0000000  -0.0000000  -0.0000000  -0.0000000
 NQMom=    0.0000000   0.0000000   0.0000000   0.0000000   0.0000000   0.0000000   0.0000000   0.0000000   0.0000000   0.0000000
 NMagM=    0.0000000   0.0000000   0.0000000   0.0000000   0.0000000   0.0000000   0.0000000   2.7928460   2.7928460   2.7928460
 AtZNuc=   6.0000000   6.0000000   6.0000000   6.0000000   6.0000000   6.0000000   6.0000000   1.0000000   1.0000000   1.0000000

  Atom        21          22          23          24          25          26          27          28
 IAtWgt=           1           1           1           1           1           1           1           1
 AtmWgt=   1.0078250   1.0078250   1.0078250   1.0078250   1.0078250   1.0078250   1.0078250   1.0078250
 NucSpn=           1           1           1           1           1           1           1           1
 AtZEff=  -0.0000000  -0.0000000  -0.0000000  -0.0000000  -0.0000000  -0.0000000  -0.0000000  -0.0000000
 NQMom=    0.0000000   0.0000000   0.0000000   0.0000000   0.0000000   0.0000000   0.0000000   0.0000000
 NMagM=    2.7928460   2.7928460   2.7928460   2.7928460   2.7928460   2.7928460   2.7928460   2.7928460
 AtZNuc=   1.0000000   1.0000000   1.0000000   1.0000000   1.0000000   1.0000000   1.0000000   1.0000000
 Leave Link  101 at Wed Dec  6 05:49:34 2023, MaxMem=  2147483648 cpu:               7.0 elap:               0.3
 (Enter /opt/gaussian/g16-c01/g16/l103.exe)

 GradGradGradGradGradGradGradGradGradGradGradGradGradGradGradGradGradGrad
 Berny optimization.
 Initialization pass.
                           ----------------------------
                           !    Initial Parameters    !
                           ! (Angstroms and Degrees)  !
 --------------------------                            --------------------------
 ! Name  Definition              Value          Derivative Info.                !
 --------------------------------------------------------------------------------
 ! R1    R(1,6)                  1.7104         estimate D2E/DX2                !
 ! R2    R(1,7)                  1.7242         estimate D2E/DX2                !
 ! R3    R(2,6)                  1.3126         estimate D2E/DX2                !
 ! R4    R(2,8)                  1.3873         estimate D2E/DX2                !
 ! R5    R(3,11)                 1.4106         estimate D2E/DX2                !
 ! R6    R(3,25)                 1.0114         estimate D2E/DX2                !
 ! R7    R(3,26)                 1.0113         estimate D2E/DX2                !
 ! R8    R(4,12)                 1.4106         estimate D2E/DX2                !
 ! R9    R(4,27)                 1.0114         estimate D2E/DX2                !
 ! R10   R(4,28)                 1.0113         estimate D2E/DX2                !
 ! R11   R(5,6)                  1.4437         estimate D2E/DX2                !
 ! R12   R(5,9)                  1.3942         estimate D2E/DX2                !
 ! R13   R(5,10)                 1.3944         estimate D2E/DX2                !
 ! R14   R(7,8)                  1.3981         estimate D2E/DX2                !
 ! R15   R(7,14)                 1.4043         estimate D2E/DX2                !
 ! R16   R(8,15)                 1.4118         estimate D2E/DX2                !
 ! R17   R(9,12)                 1.3948         estimate D2E/DX2                !
 ! R18   R(9,18)                 1.0883         estimate D2E/DX2                !
 ! R19   R(10,11)                1.3947         estimate D2E/DX2                !
 ! R20   R(10,19)                1.0863         estimate D2E/DX2                !
 ! R21   R(11,13)                1.3947         estimate D2E/DX2                !
 ! R22   R(12,13)                1.3949         estimate D2E/DX2                !
 ! R23   R(13,20)                1.088          estimate D2E/DX2                !
 ! R24   R(14,16)                1.3971         estimate D2E/DX2                !
 ! R25   R(14,21)                1.0856         estimate D2E/DX2                !
 ! R26   R(15,17)                1.3979         estimate D2E/DX2                !
 ! R27   R(15,22)                1.0862         estimate D2E/DX2                !
 ! R28   R(16,17)                1.3905         estimate D2E/DX2                !
 ! R29   R(16,23)                1.0869         estimate D2E/DX2                !
 ! R30   R(17,24)                1.0866         estimate D2E/DX2                !
 ! A1    A(6,1,7)               89.6724         estimate D2E/DX2                !
 ! A2    A(6,2,8)              109.5679         estimate D2E/DX2                !
 ! A3    A(11,3,25)            120.0165         estimate D2E/DX2                !
 ! A4    A(11,3,26)            120.0979         estimate D2E/DX2                !
 ! A5    A(25,3,26)            119.8848         estimate D2E/DX2                !
 ! A6    A(12,4,27)            120.0475         estimate D2E/DX2                !
 ! A7    A(12,4,28)            120.0332         estimate D2E/DX2                !
 ! A8    A(27,4,28)            119.9192         estimate D2E/DX2                !
 ! A9    A(6,5,9)              119.9517         estimate D2E/DX2                !
 ! A10   A(6,5,10)             119.9643         estimate D2E/DX2                !
 ! A11   A(9,5,10)             120.084          estimate D2E/DX2                !
 ! A12   A(1,6,2)              116.5019         estimate D2E/DX2                !
 ! A13   A(1,6,5)              118.6366         estimate D2E/DX2                !
 ! A14   A(2,6,5)              124.8615         estimate D2E/DX2                !
 ! A15   A(1,7,8)              109.0861         estimate D2E/DX2                !
 ! A16   A(1,7,14)             129.0326         estimate D2E/DX2                !
 ! A17   A(8,7,14)             121.8813         estimate D2E/DX2                !
 ! A18   A(2,8,7)              115.1717         estimate D2E/DX2                !
 ! A19   A(2,8,15)             126.1473         estimate D2E/DX2                !
 ! A20   A(7,8,15)             118.681          estimate D2E/DX2                !
 ! A21   A(5,9,12)             119.9578         estimate D2E/DX2                !
 ! A22   A(5,9,18)             120.6964         estimate D2E/DX2                !
 ! A23   A(12,9,18)            119.3456         estimate D2E/DX2                !
 ! A24   A(5,10,11)            119.9535         estimate D2E/DX2                !
 ! A25   A(5,10,19)            123.0058         estimate D2E/DX2                !
 ! A26   A(11,10,19)           117.019          estimate D2E/DX2                !
 ! A27   A(3,11,10)            119.99           estimate D2E/DX2                !
 ! A28   A(3,11,13)            120.0036         estimate D2E/DX2                !
 ! A29   A(10,11,13)           120.0063         estimate D2E/DX2                !
 ! A30   A(4,12,9)             119.9932         estimate D2E/DX2                !
 ! A31   A(4,12,13)            120.0082         estimate D2E/DX2                !
 ! A32   A(9,12,13)            119.9986         estimate D2E/DX2                !
 ! A33   A(11,13,12)           119.9997         estimate D2E/DX2                !
 ! A34   A(11,13,20)           120.0021         estimate D2E/DX2                !
 ! A35   A(12,13,20)           119.9983         estimate D2E/DX2                !
 ! A36   A(7,14,16)            118.2834         estimate D2E/DX2                !
 ! A37   A(7,14,21)            121.2482         estimate D2E/DX2                !
 ! A38   A(16,14,21)           120.4684         estimate D2E/DX2                !
 ! A39   A(8,15,17)            119.7419         estimate D2E/DX2                !
 ! A40   A(8,15,22)            120.3288         estimate D2E/DX2                !
 ! A41   A(17,15,22)           119.9293         estimate D2E/DX2                !
 ! A42   A(14,16,17)           120.871          estimate D2E/DX2                !
 ! A43   A(14,16,23)           119.4646         estimate D2E/DX2                !
 ! A44   A(17,16,23)           119.6645         estimate D2E/DX2                !
 ! A45   A(15,17,16)           120.5414         estimate D2E/DX2                !
 ! A46   A(15,17,24)           119.6205         estimate D2E/DX2                !
 ! A47   A(16,17,24)           119.8381         estimate D2E/DX2                !
 ! D1    D(7,1,6,2)             -0.0049         estimate D2E/DX2                !
 ! D2    D(7,1,6,5)           -179.9689         estimate D2E/DX2                !
 ! D3    D(6,1,7,8)              0.008          estimate D2E/DX2                !
 ! D4    D(6,1,7,14)          -179.9896         estimate D2E/DX2                !
 ! D5    D(8,2,6,1)              0.0            estimate D2E/DX2                !
 ! D6    D(8,2,6,5)            179.9615         estimate D2E/DX2                !
 ! D7    D(6,2,8,7)              0.0066         estimate D2E/DX2                !
 ! D8    D(6,2,8,15)           179.9859         estimate D2E/DX2                !
 ! D9    D(25,3,11,10)        -179.8758         estimate D2E/DX2                !
 ! D10   D(25,3,11,13)           0.1805         estimate D2E/DX2                !
 ! D11   D(26,3,11,10)          -0.2079         estimate D2E/DX2                !
 ! D12   D(26,3,11,13)         179.8484         estimate D2E/DX2                !
 ! D13   D(27,4,12,9)           -0.065          estimate D2E/DX2                !
 ! D14   D(27,4,12,13)         179.9546         estimate D2E/DX2                !
 ! D15   D(28,4,12,9)         -179.9549         estimate D2E/DX2                !
 ! D16   D(28,4,12,13)           0.0647         estimate D2E/DX2                !
 ! D17   D(9,5,6,1)           -159.9947         estimate D2E/DX2                !
 ! D18   D(9,5,6,2)             20.0446         estimate D2E/DX2                !
 ! D19   D(10,5,6,1)            20.0181         estimate D2E/DX2                !
 ! D20   D(10,5,6,2)          -159.9426         estimate D2E/DX2                !
 ! D21   D(6,5,9,12)          -179.977          estimate D2E/DX2                !
 ! D22   D(6,5,9,18)             0.2217         estimate D2E/DX2                !
 ! D23   D(10,5,9,12)            0.0102         estimate D2E/DX2                !
 ! D24   D(10,5,9,18)         -179.7911         estimate D2E/DX2                !
 ! D25   D(6,5,10,11)          179.9811         estimate D2E/DX2                !
 ! D26   D(6,5,10,19)            1.7277         estimate D2E/DX2                !
 ! D27   D(9,5,10,11)           -0.0061         estimate D2E/DX2                !
 ! D28   D(9,5,10,19)         -178.2594         estimate D2E/DX2                !
 ! D29   D(1,7,8,2)             -0.01           estimate D2E/DX2                !
 ! D30   D(1,7,8,15)          -179.991          estimate D2E/DX2                !
 ! D31   D(14,7,8,2)           179.9878         estimate D2E/DX2                !
 ! D32   D(14,7,8,15)            0.0068         estimate D2E/DX2                !
 ! D33   D(1,7,14,16)          179.9935         estimate D2E/DX2                !
 ! D34   D(1,7,14,21)            0.0014         estimate D2E/DX2                !
 ! D35   D(8,7,14,16)           -0.0038         estimate D2E/DX2                !
 ! D36   D(8,7,14,21)         -179.9959         estimate D2E/DX2                !
 ! D37   D(2,8,15,17)         -179.9887         estimate D2E/DX2                !
 ! D38   D(2,8,15,22)            0.0122         estimate D2E/DX2                !
 ! D39   D(7,8,15,17)           -0.01           estimate D2E/DX2                !
 ! D40   D(7,8,15,22)          179.9909         estimate D2E/DX2                !
 ! D41   D(5,9,12,4)          -179.9857         estimate D2E/DX2                !
 ! D42   D(5,9,12,13)           -0.0053         estimate D2E/DX2                !
 ! D43   D(18,9,12,4)           -0.1817         estimate D2E/DX2                !
 ! D44   D(18,9,12,13)         179.7986         estimate D2E/DX2                !
 ! D45   D(5,10,11,3)         -179.9466         estimate D2E/DX2                !
 ! D46   D(5,10,11,13)          -0.0029         estimate D2E/DX2                !
 ! D47   D(19,10,11,3)          -1.5908         estimate D2E/DX2                !
 ! D48   D(19,10,11,13)        178.353          estimate D2E/DX2                !
 ! D49   D(3,11,13,12)         179.9514         estimate D2E/DX2                !
 ! D50   D(3,11,13,20)          -0.0423         estimate D2E/DX2                !
 ! D51   D(10,11,13,12)          0.0077         estimate D2E/DX2                !
 ! D52   D(10,11,13,20)       -179.9861         estimate D2E/DX2                !
 ! D53   D(4,12,13,11)         179.9768         estimate D2E/DX2                !
 ! D54   D(4,12,13,20)          -0.0295         estimate D2E/DX2                !
 ! D55   D(9,12,13,11)          -0.0036         estimate D2E/DX2                !
 ! D56   D(9,12,13,20)         179.9902         estimate D2E/DX2                !
 ! D57   D(7,14,16,17)           0.004          estimate D2E/DX2                !
 ! D58   D(7,14,16,23)        -179.9997         estimate D2E/DX2                !
 ! D59   D(21,14,16,17)        179.9962         estimate D2E/DX2                !
 ! D60   D(21,14,16,23)         -0.0076         estimate D2E/DX2                !
 ! D61   D(8,15,17,16)           0.0105         estimate D2E/DX2                !
 ! D62   D(8,15,17,24)         179.9986         estimate D2E/DX2                !
 ! D63   D(22,15,17,16)       -179.9904         estimate D2E/DX2                !
 ! D64   D(22,15,17,24)         -0.0023         estimate D2E/DX2                !
 ! D65   D(14,16,17,15)         -0.0075         estimate D2E/DX2                !
 ! D66   D(14,16,17,24)       -179.9956         estimate D2E/DX2                !
 ! D67   D(23,16,17,15)        179.9962         estimate D2E/DX2                !
 ! D68   D(23,16,17,24)          0.0082         estimate D2E/DX2                !
 --------------------------------------------------------------------------------
 Trust Radius=3.00D-01 FncErr=1.00D-07 GrdErr=1.00D-06 EigMax=2.50D+02 EigMin=1.00D-04
 Number of steps in this run=    155 maximum allowed number of steps=    168.
 GradGradGradGradGradGradGradGradGradGradGradGradGradGradGradGradGradGrad

 Leave Link  103 at Wed Dec  6 05:49:34 2023, MaxMem=  2147483648 cpu:               0.6 elap:               0.0
 (Enter /opt/gaussian/g16-c01/g16/l202.exe)
                          Input orientation:                          
 ---------------------------------------------------------------------
 Center     Atomic      Atomic             Coordinates (Angstroms)
 Number     Number       Type             X           Y           Z
 ---------------------------------------------------------------------
      1         16           0        0.983100    1.534000    0.358700
      2          7           0        0.983800   -0.977300   -0.229200
      3          7           0       -4.096900    2.348800   -0.302100
      4          7           0       -3.970800   -2.473900    0.279300
      5          6           0       -1.238700    0.012400    0.004800
      6          6           0        0.204500    0.050900    0.012600
      7          6           0        2.513800    0.761700    0.175900
      8          6           0        2.311500   -0.585300   -0.139300
      9          6           0       -1.903300   -1.205100    0.145100
     10          6           0       -1.966100    1.192800   -0.143300
     11          6           0       -3.360300    1.155300   -0.151200
     12          6           0       -3.297600   -1.242500    0.137100
     13          6           0       -4.026100   -0.062200   -0.011100
     14          6           0        3.801000    1.308600    0.302400
     15          6           0        3.439000   -1.412300   -0.334200
     16          6           0        4.899600    0.468500    0.104400
     17          6           0        4.723300   -0.874500   -0.209900
     18          1           0       -1.345600   -2.131900    0.264700
     19          1           0       -1.497700    2.162900   -0.283500
     20          1           0       -5.113700   -0.091400   -0.017500
     21          1           0        3.946200    2.356100    0.547600
     22          1           0        3.312800   -2.462800   -0.579900
     23          1           0        5.904600    0.871700    0.197600
     24          1           0        5.589700   -1.512800   -0.360300
     25          1           0       -5.107900    2.322300   -0.306000
     26          1           0       -3.615600    3.232700   -0.401500
     27          1           0       -3.443200   -3.330100    0.386100
     28          1           0       -4.981700   -2.501800    0.272900
 ---------------------------------------------------------------------
                    Distance matrix (angstroms):
                    1          2          3          4          5
     1  S    0.000000
     2  N    2.579197   0.000000
     3  N    5.187192   6.073036   0.000000
     4  N    6.372652   5.200620   4.859255   0.000000
     5  C    2.716046   2.444129   3.704357   3.704242   0.000000
     6  C    1.710435   1.312620   4.886862   4.886601   1.443735
     7  C    1.724212   2.351410   6.815330   7.247747   3.830402
     8  C    2.550310   1.387275   7.050038   6.573380   3.603045
     9  C    3.984921   2.920161   4.200247   2.429490   1.394161
    10  C    3.011013   3.663144   2.429375   4.200250   1.394413
    11  C    4.389594   4.839966   1.410600   3.705284   2.414900
    12  C    5.107098   4.305217   3.705295   1.410590   2.414818
    13  C    5.270360   5.097458   2.429530   2.429750   2.788443
    14  C    2.827461   3.666681   7.989009   8.643420   5.212224
    15  C    3.897722   2.495648   8.422392   7.510560   4.901588
    16  C    4.066808   4.187495   9.199879   9.347315   6.156027
    17  C    4.484783   3.740963   9.391171   8.853517   6.031429
    18  H    4.344019   2.646345   5.288439   2.647424   2.162637
    19  H    2.638618   4.002705   2.605906   5.285157   2.185143
    20  H    6.320951   6.165155   2.658845   2.659063   3.876454
    21  H    3.080827   4.526675   8.087861   9.277919   5.715833
    22  H    4.720475   2.784590   8.839249   7.334110   5.213889
    23  H    4.968476   5.274015  10.122328  10.427044   7.197382
    24  H    5.569624   4.638778  10.428114   9.629951   7.006182
    25  H    6.177663   6.928352   1.011355   4.963780   4.516962
    26  H    4.961001   6.237649   1.011340   5.758033   4.023067
    27  H    6.576652   5.050999   5.757677   1.011359   4.022128
    28  H    7.202353   6.177653   4.964052   1.011305   4.516982
                    6          7          8          9         10
     6  C    0.000000
     7  C    2.421729   0.000000
     8  C    2.206190   1.398101   0.000000
     9  C    2.457217   4.835289   4.269611   0.000000
    10  C    2.457589   4.511900   4.632442   2.415997   0.000000
    11  C    3.735549   5.896352   5.932887   2.789647   1.394727
    12  C    3.735383   6.147414   5.654230   1.394824   2.789660
    13  C    4.232178   6.594245   6.360444   2.415967   2.415803
    14  C    3.821074   1.404274   2.449605   6.235581   5.785456
    15  C    3.566962   2.417121   1.411797   5.367758   6.003174
    16  C    4.714529   2.404812   2.805022   7.005858   6.908242
    17  C    4.617946   2.776307   2.430103   6.644332   7.001874
    18  H    2.689048   4.824497   3.991186   1.088252   3.406628
    19  H    2.728682   4.273938   4.699298   3.419303   1.086346
    20  H    5.320189   7.677496   7.442605   3.401975   3.401820
    21  H    4.427244   2.175326   3.434517   6.860088   6.065138
    22  H    4.041197   3.406910   2.172956   5.414345   6.435901
    23  H    5.761864   3.392653   3.891878   8.079552   7.884620
    24  H    5.620017   3.862903   3.414043   7.516326   8.028541
    25  H    5.786394   7.794743   7.970535   4.787014   3.342626
    26  H    4.988837   6.633911   7.055238   4.787986   2.636040
    27  H    4.987623   7.229997   6.397386   2.635336   4.787349
    28  H    5.786251   8.175718   7.552062   3.342800   4.787184
                   11         12         13         14         15
    11  C    0.000000
    12  C    2.415883   0.000000
    13  C    1.394713   1.394913   0.000000
    14  C    7.177289   7.544903   7.952413   0.000000
    15  C    7.270250   6.755201   7.593081   2.817730   0.000000
    16  C    8.292344   8.373928   8.942209   1.397102   2.421390
    17  C    8.334754   8.036832   8.789275   2.424668   1.397893
    18  H    3.877844   2.148864   3.397765   6.190796   4.875336
    19  H    2.121801   3.874699   3.379065   5.399012   6.095542
    20  H    2.155585   2.155725   1.088011   9.029630   8.659893
    21  H    7.437418   8.098831   8.349724   1.085570   3.903289
    22  H    7.602940   6.760223   7.742472   3.903876   1.086207
    23  H    9.275800   9.442139   9.976699   2.151046   3.402742
    24  H    9.341573   8.905311   9.730868   3.405718   2.153205
    25  H    2.107121   4.022601   2.634976   8.987004   9.327247
    26  H    2.107942   4.518698   3.343245   7.694387   8.446771
    27  H    4.518227   2.107433   3.343159   8.602498   7.180631
    28  H    4.022832   2.107242   2.635427   9.573706   8.512565
                   16         17         18         19         20
    16  C    0.000000
    17  C    1.390509   0.000000
    18  H    6.766853   6.215935   0.000000
    19  H    6.629246   6.923298   4.332316   0.000000
    20  H   10.029682   9.869997   4.294398   4.269436   0.000000
    21  H    2.160655   3.408000   6.944446   5.510363   9.401669
    22  H    3.402752   2.156179   4.745897   6.680259   8.771872
    23  H    1.086868   2.147263   7.848026   7.529455  11.062403
    24  H    2.148891   1.086598   6.990872   7.984229  10.802808
    25  H   10.186023  10.338339   5.858370   3.613787   2.430887
    26  H    8.966904   9.297476   5.863076   2.375689   3.666252
    27  H    9.171207   8.548503   2.418749   5.865695   3.666421
    28  H   10.319456   9.852321   3.654876   5.848698   2.431416
                   21         22         23         24         25
    21  H    0.000000
    22  H    4.989414   0.000000
    23  H    2.482191   4.294278   0.000000
    24  H    4.300437   2.476893   2.469059   0.000000
    25  H    9.094312   9.689189  11.119038  11.364400   0.000000
    26  H    7.671378   8.970690   9.826874  10.356593   1.750688
    27  H    9.325352   6.879600  10.250464   9.244078   5.932947
    28  H   10.167696   8.338316  11.397267  10.636426   4.860349
                   26         27         28
    26  H    0.000000
    27  H    6.612139   0.000000
    28  H    5.933425   1.750965   0.000000
 Stoichiometry    C13H11N3S
 Framework group  C1[X(C13H11N3S)]
 Deg. of freedom    78
 Full point group                 C1      NOp   1
 Largest Abelian subgroup         C1      NOp   1
 Largest concise Abelian subgroup C1      NOp   1
                         Standard orientation:                         
 ---------------------------------------------------------------------
 Center     Atomic      Atomic             Coordinates (Angstroms)
 Number     Number       Type             X           Y           Z
 ---------------------------------------------------------------------
      1         16           0        1.031355   -1.419204   -0.318457
      2          7           0        0.997403    1.097226    0.246061
      3          7           0       -4.039306   -2.294701    0.336417
      4          7           0       -3.975018    2.523648   -0.289476
      5          6           0       -1.211233    0.076207    0.015382
      6          6           0        0.232364    0.056652    0.011768
      7          6           0        2.551255   -0.625145   -0.138789
      8          6           0        2.330387    0.721935    0.163332
      9          6           0       -1.891393    1.283493   -0.137998
     10          6           0       -1.923458   -1.112251    0.172524
     11          6           0       -3.318047   -1.093050    0.176377
     12          6           0       -3.286081    1.302594   -0.134044
     13          6           0       -3.999407    0.114222    0.023194
     14          6           0        3.845881   -1.156188   -0.256782
     15          6           0        3.446370    1.565488    0.353522
     16          6           0        4.932786   -0.299890   -0.063691
     17          6           0        4.737971    1.043525    0.237636
     18          1           0       -1.345598    2.216412   -0.264733
     19          1           0       -1.442733   -2.074756    0.322982
     20          1           0       -5.087310    0.129150    0.026438
     21          1           0        4.005522   -2.203911   -0.491843
     22          1           0        3.305687    2.616465    0.589105
     23          1           0        5.943255   -0.690661   -0.150471
     24          1           0        5.595482    1.694550    0.384390
     25          1           0       -5.050573   -2.281488    0.337389
     26          1           0       -3.546702   -3.171225    0.445309
     27          1           0       -3.458427    3.385698   -0.402835
     28          1           0       -4.986211    2.538285   -0.286017
 ---------------------------------------------------------------------
 Rotational constants (GHZ):           1.1100552           0.2202723           0.1855675
 Leave Link  202 at Wed Dec  6 05:49:34 2023, MaxMem=  2147483648 cpu:               0.1 elap:               0.0
 (Enter /opt/gaussian/g16-c01/g16/l301.exe)
 Standard basis: 6-311++G(d,p) (5D, 7F)
 Ernie: Thresh=  0.10000D-02 Tol=  0.10000D-05 Strict=F.
 There are   476 symmetry adapted cartesian basis functions of A   symmetry.
 There are   459 symmetry adapted basis functions of A   symmetry.
   459 basis functions,   725 primitive gaussians,   476 cartesian basis functions
    63 alpha electrons       63 beta electrons
       nuclear repulsion energy      1194.7037434276 Hartrees.
 IExCor= 7252 DFT=T Ex+Corr=MN15 ExCW=0 ScaHFX=  0.440000
 ScaDFX=  1.000000  1.000000  1.000000  1.000000 ScalE2=  1.000000  1.000000
 IRadAn=      5 IRanWt=     -1 IRanGd=            0 ICorTp=0 IEmpDi=  4
 NAtoms=   28 NActive=   28 NUniq=   28 SFac= 1.00D+00 NAtFMM=   60 NAOKFM=F Big=F
 Integral buffers will be    131072 words long.
 Raffenetti 2 integral format.
 Two-electron integral symmetry is turned on.
 Leave Link  301 at Wed Dec  6 05:49:34 2023, MaxMem=  2147483648 cpu:               1.2 elap:               0.1
 (Enter /opt/gaussian/g16-c01/g16/l302.exe)
 NPDir=0 NMtPBC=     1 NCelOv=     1 NCel=       1 NClECP=     1 NCelD=      1
         NCelK=      1 NCelE2=     1 NClLst=     1 CellRange=     0.0.
 One-electron integrals computed using PRISM.
 One-electron integral symmetry used in STVInt
 NBasis=   459 RedAO= T EigKep=  1.19D-06  NBF=   459
 NBsUse=   455 1.00D-06 EigRej=  7.28D-07 NBFU=   455
 Precomputing XC quadrature grid using
 IXCGrd= 4 IRadAn=           5 IRanWt=          -1 IRanGd=           0 AccXCQ= 0.00D+00.
 Generated NRdTot=       0 NPtTot=           0 NUsed=           0 NTot=          32
 NSgBfM=   471   471   471   471   471 MxSgAt=    28 MxSgA2=    28.
 Leave Link  302 at Wed Dec  6 05:49:51 2023, MaxMem=  2147483648 cpu:             426.8 elap:              17.1
 (Enter /opt/gaussian/g16-c01/g16/l303.exe)
 DipDrv:  MaxL=1.
 Leave Link  303 at Wed Dec  6 05:51:30 2023, MaxMem=  2147483648 cpu:            2457.3 elap:              98.6
 (Enter /opt/gaussian/g16-c01/g16/l401.exe)
 ExpMin= 3.60D-02 ExpMax= 9.34D+04 ExpMxC= 3.17D+03 IAcc=3 IRadAn=         5 AccDes= 0.00D+00
 Harris functional with IExCor= 1009 and IRadAn=       5 diagonalized for initial guess.
 HarFok:  IExCor= 1009 AccDes= 0.00D+00 IRadAn=         5 IDoV= 1 UseB2=F ITyADJ=14
 ICtDFT=  3500011 ScaDFX=  1.000000  1.000000  1.000000  1.000000
 FoFCou: FMM=F IPFlag=           0 FMFlag=      100000 FMFlg1=           0
         NFxFlg=           0 DoJE=T BraDBF=F KetDBF=T FulRan=T
         wScrn=  0.000000 ICntrl=       500 IOpCl=  0 I1Cent=   200000004 NGrid=           0
         NMat0=    1 NMatS0=      1 NMatT0=    0 NMatD0=    1 NMtDS0=    0 NMtDT0=    0
 Petite list used in FoFCou.
 Harris En= -1063.85679682921    
 JPrj=0 DoOrth=F DoCkMO=F.
 Leave Link  401 at Wed Dec  6 05:51:42 2023, MaxMem=  2147483648 cpu:             289.7 elap:              11.7
 (Enter /opt/gaussian/g16-c01/g16/l502.exe)
 Integral symmetry usage will be decided dynamically.
 Closed shell SCF:
 Using DIIS extrapolation, IDIIS=  1040.
 NGot=  2147483648 LenX=  2147013019 LenY=  2146785967
 Requested convergence on RMS density matrix=1.00D-08 within 128 cycles.
 Requested convergence on MAX density matrix=1.00D-06.
 Requested convergence on             energy=1.00D-06.
 No special actions if energy rises.
 Fock matrices will be formed incrementally for  20 cycles.

 Cycle   1  Pass 1  IDiag  1:
 FoFJK:  IHMeth= 1 ICntrl=       0 DoSepK=F KAlg= 0 I1Cent=           0 FoldK=F
 IRaf= 830000000 NMat=       1 IRICut=       1 DoRegI=T DoRafI=F ISym2E= 0 IDoP0=0 IntGTp=1.
 FoFCou: FMM=F IPFlag=           0 FMFlag=      100000 FMFlg1=           0
         NFxFlg=           0 DoJE=F BraDBF=F KetDBF=F FulRan=T
         wScrn=  0.000000 ICntrl=         0 IOpCl=  0 I1Cent=           0 NGrid=           0
         NMat0=    1 NMatS0=      1 NMatT0=    0 NMatD0=    1 NMtDS0=    0 NMtDT0=    0
 Symmetry not used in FoFCou.
 E= -1063.27897265684    
 DIIS: error= 2.96D-02 at cycle   1 NSaved=   1.
 NSaved= 1 IEnMin= 1 EnMin= -1063.27897265684     IErMin= 1 ErrMin= 2.96D-02
 ErrMax= 2.96D-02  0.00D+00 EMaxC= 1.00D-01 BMatC= 8.23D-01 BMatP= 8.23D-01
 IDIUse=3 WtCom= 7.04D-01 WtEn= 2.96D-01
 Coeff-Com:  0.100D+01
 Coeff-En:   0.100D+01
 Coeff:      0.100D+01
 Gap=     0.337 Goal=   None    Shift=    0.000
 GapD=    0.337 DampG=1.000 DampE=0.500 DampFc=0.5000 IDamp=-1.
 Damping current iteration by 5.00D-01
 RMSDP=1.44D-01 MaxDP=1.02D+01              OVMax= 2.42D-01

 Cycle   2  Pass 1  IDiag  1:
 RMSU=  7.03D-02    CP:  1.15D+00
 E= -1063.47707229314     Delta-E=       -0.198099636300 Rises=F Damp=T
 DIIS: error= 1.17D-02 at cycle   2 NSaved=   2.
 NSaved= 2 IEnMin= 2 EnMin= -1063.47707229314     IErMin= 2 ErrMin= 1.17D-02
 ErrMax= 1.17D-02  0.00D+00 EMaxC= 1.00D-01 BMatC= 1.06D-01 BMatP= 8.23D-01
 IDIUse=3 WtCom= 8.83D-01 WtEn= 1.17D-01
 Coeff-Com: -0.941D-01 0.109D+01
 Coeff-En:   0.123D+00 0.877D+00
 Coeff:     -0.688D-01 0.107D+01
 Gap=     0.313 Goal=   None    Shift=    0.000
 RMSDP=7.73D-02 MaxDP=5.37D+00 DE=-1.98D-01 OVMax= 2.17D-01

 Cycle   3  Pass 1  IDiag  1:
 RMSU=  1.32D-02    CP:  8.01D-01  3.78D-02
 E= -1063.67585384623     Delta-E=       -0.198781553082 Rises=F Damp=F
 DIIS: error= 1.51D-02 at cycle   3 NSaved=   3.
 NSaved= 3 IEnMin= 3 EnMin= -1063.67585384623     IErMin= 2 ErrMin= 1.17D-02
 ErrMax= 1.51D-02  0.00D+00 EMaxC= 1.00D-01 BMatC= 6.69D-02 BMatP= 1.06D-01
 IDIUse=3 WtCom= 8.49D-01 WtEn= 1.51D-01
 Coeff-Com: -0.163D+00 0.533D+00 0.630D+00
 Coeff-En:   0.000D+00 0.000D+00 0.100D+01
 Coeff:     -0.138D+00 0.452D+00 0.686D+00
 Gap=     0.208 Goal=   None    Shift=    0.000
 RMSDP=1.92D-02 MaxDP=1.13D+00 DE=-1.99D-01 OVMax= 1.14D-01

 Cycle   4  Pass 1  IDiag  1:
 RMSU=  5.23D-03    CP:  7.85D-01  2.95D-01  7.51D-01
 E= -1063.71448989134     Delta-E=       -0.038636045119 Rises=F Damp=F
 DIIS: error= 1.11D-02 at cycle   4 NSaved=   4.
 NSaved= 4 IEnMin= 4 EnMin= -1063.71448989134     IErMin= 4 ErrMin= 1.11D-02
 ErrMax= 1.11D-02  0.00D+00 EMaxC= 1.00D-01 BMatC= 3.11D-02 BMatP= 6.69D-02
 IDIUse=3 WtCom= 8.89D-01 WtEn= 1.11D-01
 Coeff-Com: -0.798D-01 0.189D+00 0.453D+00 0.438D+00
 Coeff-En:   0.000D+00 0.000D+00 0.326D+00 0.674D+00
 Coeff:     -0.709D-01 0.168D+00 0.439D+00 0.464D+00
 Gap=     0.196 Goal=   None    Shift=    0.000
 RMSDP=6.28D-03 MaxDP=3.37D-01 DE=-3.86D-02 OVMax= 4.70D-02

 Cycle   5  Pass 1  IDiag  1:
 RMSU=  2.74D-03    CP:  7.70D-01  2.27D-01  8.45D-01  5.72D-01
 E= -1063.74349257470     Delta-E=       -0.029002683358 Rises=F Damp=F
 DIIS: error= 1.19D-03 at cycle   5 NSaved=   5.
 NSaved= 5 IEnMin= 5 EnMin= -1063.74349257470     IErMin= 5 ErrMin= 1.19D-03
 ErrMax= 1.19D-03  0.00D+00 EMaxC= 1.00D-01 BMatC= 6.03D-04 BMatP= 3.11D-02
 IDIUse=3 WtCom= 9.88D-01 WtEn= 1.19D-02
 Coeff-Com: -0.172D-01 0.375D-01 0.141D+00 0.203D+00 0.635D+00
 Coeff-En:   0.000D+00 0.000D+00 0.000D+00 0.000D+00 0.100D+01
 Coeff:     -0.170D-01 0.370D-01 0.140D+00 0.201D+00 0.639D+00
 Gap=     0.196 Goal=   None    Shift=    0.000
 RMSDP=1.70D-03 MaxDP=1.25D-01 DE=-2.90D-02 OVMax= 8.41D-03

 Cycle   6  Pass 1  IDiag  1:
 RMSU=  5.61D-04    CP:  7.68D-01  2.04D-01  8.49D-01  5.67D-01  9.70D-01
 E= -1063.74403146069     Delta-E=       -0.000538885983 Rises=F Damp=F
 DIIS: error= 5.73D-04 at cycle   6 NSaved=   6.
 NSaved= 6 IEnMin= 6 EnMin= -1063.74403146069     IErMin= 6 ErrMin= 5.73D-04
 ErrMax= 5.73D-04  0.00D+00 EMaxC= 1.00D-01 BMatC= 6.92D-05 BMatP= 6.03D-04
 IDIUse=3 WtCom= 9.94D-01 WtEn= 5.73D-03
 Coeff-Com:  0.302D-02-0.909D-02 0.526D-02 0.355D-01 0.308D+00 0.657D+00
 Coeff-En:   0.000D+00 0.000D+00 0.000D+00 0.000D+00 0.000D+00 0.100D+01
 Coeff:      0.301D-02-0.904D-02 0.523D-02 0.353D-01 0.307D+00 0.659D+00
 Gap=     0.197 Goal=   None    Shift=    0.000
 RMSDP=2.61D-04 MaxDP=1.48D-02 DE=-5.39D-04 OVMax= 3.79D-03

 Cycle   7  Pass 1  IDiag  1:
 RMSU=  1.96D-04    CP:  7.69D-01  2.03D-01  8.51D-01  5.67D-01  9.89D-01
                    CP:  9.81D-01
 E= -1063.74410179433     Delta-E=       -0.000070333646 Rises=F Damp=F
 DIIS: error= 1.88D-04 at cycle   7 NSaved=   7.
 NSaved= 7 IEnMin= 7 EnMin= -1063.74410179433     IErMin= 7 ErrMin= 1.88D-04
 ErrMax= 1.88D-04  0.00D+00 EMaxC= 1.00D-01 BMatC= 8.43D-06 BMatP= 6.92D-05
 IDIUse=3 WtCom= 9.98D-01 WtEn= 1.88D-03
 Coeff-Com:  0.254D-02-0.674D-02-0.755D-02 0.798D-03 0.910D-01 0.313D+00
 Coeff-Com:  0.607D+00
 Coeff-En:   0.000D+00 0.000D+00 0.000D+00 0.000D+00 0.000D+00 0.000D+00
 Coeff-En:   0.100D+01
 Coeff:      0.253D-02-0.673D-02-0.753D-02 0.796D-03 0.908D-01 0.312D+00
 Coeff:      0.608D+00
 Gap=     0.197 Goal=   None    Shift=    0.000
 RMSDP=8.78D-05 MaxDP=6.30D-03 DE=-7.03D-05 OVMax= 1.33D-03

 Cycle   8  Pass 1  IDiag  1:
 RMSU=  5.48D-05    CP:  7.69D-01  2.03D-01  8.50D-01  5.71D-01  1.01D+00
                    CP:  1.03D+00  1.01D+00
 E= -1063.74411104583     Delta-E=       -0.000009251497 Rises=F Damp=F
 DIIS: error= 6.61D-05 at cycle   8 NSaved=   8.
 NSaved= 8 IEnMin= 8 EnMin= -1063.74411104583     IErMin= 8 ErrMin= 6.61D-05
 ErrMax= 6.61D-05  0.00D+00 EMaxC= 1.00D-01 BMatC= 1.14D-06 BMatP= 8.43D-06
 IDIUse=1 WtCom= 1.00D+00 WtEn= 0.00D+00
 Coeff-Com:  0.896D-03-0.194D-02-0.534D-02-0.720D-02-0.946D-02 0.326D-01
 Coeff-Com:  0.274D+00 0.716D+00
 Coeff:      0.896D-03-0.194D-02-0.534D-02-0.720D-02-0.946D-02 0.326D-01
 Coeff:      0.274D+00 0.716D+00
 Gap=     0.197 Goal=   None    Shift=    0.000
 RMSDP=5.55D-05 MaxDP=2.96D-03 DE=-9.25D-06 OVMax= 5.04D-04

 Cycle   9  Pass 1  IDiag  1:
 RMSU=  2.74D-05    CP:  7.69D-01  2.02D-01  8.50D-01  5.68D-01  1.01D+00
                    CP:  1.06D+00  1.15D+00  8.15D-01
 E= -1063.74411248702     Delta-E=       -0.000001441193 Rises=F Damp=F
 DIIS: error= 2.41D-05 at cycle   9 NSaved=   9.
 NSaved= 9 IEnMin= 9 EnMin= -1063.74411248702     IErMin= 9 ErrMin= 2.41D-05
 ErrMax= 2.41D-05  0.00D+00 EMaxC= 1.00D-01 BMatC= 1.30D-07 BMatP= 1.14D-06
 IDIUse=1 WtCom= 1.00D+00 WtEn= 0.00D+00
 Coeff-Com:  0.146D-03-0.187D-03-0.130D-02-0.304D-02-0.126D-01-0.197D-01
 Coeff-Com:  0.451D-01 0.299D+00 0.693D+00
 Coeff:      0.146D-03-0.187D-03-0.130D-02-0.304D-02-0.126D-01-0.197D-01
 Coeff:      0.451D-01 0.299D+00 0.693D+00
 Gap=     0.197 Goal=   None    Shift=    0.000
 RMSDP=1.79D-05 MaxDP=1.03D-03 DE=-1.44D-06 OVMax= 1.65D-04

 Cycle  10  Pass 1  IDiag  1:
 RMSU=  7.43D-06    CP:  7.69D-01  2.02D-01  8.50D-01  5.69D-01  1.01D+00
                    CP:  1.07D+00  1.15D+00  1.01D+00  8.96D-01
 E= -1063.74411266554     Delta-E=       -0.000000178513 Rises=F Damp=F
 DIIS: error= 7.61D-06 at cycle  10 NSaved=  10.
 NSaved=10 IEnMin=10 EnMin= -1063.74411266554     IErMin=10 ErrMin= 7.61D-06
 ErrMax= 7.61D-06  0.00D+00 EMaxC= 1.00D-01 BMatC= 2.00D-08 BMatP= 1.30D-07
 IDIUse=1 WtCom= 1.00D+00 WtEn= 0.00D+00
 Coeff-Com: -0.118D-03 0.298D-03 0.565D-03-0.446D-04-0.490D-02-0.162D-01
 Coeff-Com: -0.257D-01 0.128D-01 0.301D+00 0.733D+00
 Coeff:     -0.118D-03 0.298D-03 0.565D-03-0.446D-04-0.490D-02-0.162D-01
 Coeff:     -0.257D-01 0.128D-01 0.301D+00 0.733D+00
 Gap=     0.197 Goal=   None    Shift=    0.000
 RMSDP=9.07D-06 MaxDP=8.19D-04 DE=-1.79D-07 OVMax= 9.13D-05

 Cycle  11  Pass 1  IDiag  1:
 RMSU=  2.73D-06    CP:  7.69D-01  2.02D-01  8.50D-01  5.69D-01  1.01D+00
                    CP:  1.07D+00  1.17D+00  9.98D-01  1.06D+00  9.79D-01
 E= -1063.74411269290     Delta-E=       -0.000000027369 Rises=F Damp=F
 DIIS: error= 4.68D-06 at cycle  11 NSaved=  11.
 NSaved=11 IEnMin=11 EnMin= -1063.74411269290     IErMin=11 ErrMin= 4.68D-06
 ErrMax= 4.68D-06  0.00D+00 EMaxC= 1.00D-01 BMatC= 2.73D-09 BMatP= 2.00D-08
 IDIUse=1 WtCom= 1.00D+00 WtEn= 0.00D+00
 Coeff-Com: -0.644D-04 0.147D-03 0.382D-03 0.219D-03-0.138D-02-0.608D-02
 Coeff-Com: -0.152D-01-0.182D-01 0.841D-01 0.358D+00 0.598D+00
 Coeff:     -0.644D-04 0.147D-03 0.382D-03 0.219D-03-0.138D-02-0.608D-02
 Coeff:     -0.152D-01-0.182D-01 0.841D-01 0.358D+00 0.598D+00
 Gap=     0.197 Goal=   None    Shift=    0.000
 RMSDP=2.88D-06 MaxDP=1.73D-04 DE=-2.74D-08 OVMax= 2.49D-05

 Cycle  12  Pass 1  IDiag  1:
 RMSU=  9.29D-07    CP:  7.69D-01  2.02D-01  8.50D-01  5.68D-01  1.01D+00
                    CP:  1.07D+00  1.17D+00  9.98D-01  1.09D+00  1.06D+00
                    CP:  9.92D-01
 E= -1063.74411269622     Delta-E=       -0.000000003319 Rises=F Damp=F
 DIIS: error= 1.14D-06 at cycle  12 NSaved=  12.
 NSaved=12 IEnMin=12 EnMin= -1063.74411269622     IErMin=12 ErrMin= 1.14D-06
 ErrMax= 1.14D-06  0.00D+00 EMaxC= 1.00D-01 BMatC= 3.08D-10 BMatP= 2.73D-09
 IDIUse=1 WtCom= 1.00D+00 WtEn= 0.00D+00
 Coeff-Com: -0.563D-05 0.873D-05 0.635D-04 0.103D-03 0.242D-03 0.136D-03
 Coeff-Com: -0.229D-02-0.114D-01-0.200D-01 0.280D-01 0.264D+00 0.741D+00
 Coeff:     -0.563D-05 0.873D-05 0.635D-04 0.103D-03 0.242D-03 0.136D-03
 Coeff:     -0.229D-02-0.114D-01-0.200D-01 0.280D-01 0.264D+00 0.741D+00
 Gap=     0.197 Goal=   None    Shift=    0.000
 RMSDP=9.09D-07 MaxDP=4.69D-05 DE=-3.32D-09 OVMax= 1.20D-05

 Cycle  13  Pass 1  IDiag  1:
 RMSU=  3.15D-07    CP:  7.69D-01  2.02D-01  8.50D-01  5.68D-01  1.01D+00
                    CP:  1.07D+00  1.17D+00  1.00D+00  1.10D+00  1.10D+00
                    CP:  1.08D+00  8.93D-01
 E= -1063.74411269672     Delta-E=       -0.000000000495 Rises=F Damp=F
 DIIS: error= 3.93D-07 at cycle  13 NSaved=  13.
 NSaved=13 IEnMin=13 EnMin= -1063.74411269672     IErMin=13 ErrMin= 3.93D-07
 ErrMax= 3.93D-07  0.00D+00 EMaxC= 1.00D-01 BMatC= 5.23D-11 BMatP= 3.08D-10
 IDIUse=1 WtCom= 1.00D+00 WtEn= 0.00D+00
 Coeff-Com:  0.361D-05-0.101D-04-0.415D-05 0.359D-04 0.290D-03 0.686D-03
 Coeff-Com:  0.513D-03-0.358D-02-0.191D-01-0.241D-01 0.762D-01 0.384D+00
 Coeff-Com:  0.585D+00
 Coeff:      0.361D-05-0.101D-04-0.415D-05 0.359D-04 0.290D-03 0.686D-03
 Coeff:      0.513D-03-0.358D-02-0.191D-01-0.241D-01 0.762D-01 0.384D+00
 Coeff:      0.585D+00
 Gap=     0.197 Goal=   None    Shift=    0.000
 RMSDP=2.80D-07 MaxDP=1.52D-05 DE=-4.95D-10 OVMax= 3.92D-06

 Cycle  14  Pass 1  IDiag  1:
 RMSU=  1.34D-07    CP:  7.69D-01  2.02D-01  8.50D-01  5.68D-01  1.01D+00
                    CP:  1.07D+00  1.17D+00  1.00D+00  1.10D+00  1.11D+00
                    CP:  1.08D+00  9.79D-01  9.90D-01
 E= -1063.74411269668     Delta-E=        0.000000000040 Rises=F Damp=F
 DIIS: error= 2.03D-07 at cycle  14 NSaved=  14.
 NSaved=14 IEnMin=13 EnMin= -1063.74411269672     IErMin=14 ErrMin= 2.03D-07
 ErrMax= 2.03D-07  0.00D+00 EMaxC= 1.00D-01 BMatC= 6.85D-12 BMatP= 5.23D-11
 IDIUse=1 WtCom= 1.00D+00 WtEn= 0.00D+00
 Coeff-Com:  0.292D-05-0.639D-05-0.156D-04-0.545D-05 0.796D-04 0.255D-03
 Coeff-Com:  0.775D-03 0.923D-03-0.412D-02-0.173D-01-0.220D-01 0.130D-01
 Coeff-Com:  0.269D+00 0.759D+00
 Coeff:      0.292D-05-0.639D-05-0.156D-04-0.545D-05 0.796D-04 0.255D-03
 Coeff:      0.775D-03 0.923D-03-0.412D-02-0.173D-01-0.220D-01 0.130D-01
 Coeff:      0.269D+00 0.759D+00
 Gap=     0.197 Goal=   None    Shift=    0.000
 RMSDP=1.53D-07 MaxDP=1.01D-05 DE= 4.05D-11 OVMax= 1.87D-06

 Cycle  15  Pass 1  IDiag  1:
 RMSU=  6.07D-08    CP:  7.69D-01  2.02D-01  8.50D-01  5.68D-01  1.01D+00
                    CP:  1.07D+00  1.17D+00  1.00D+00  1.10D+00  1.11D+00
                    CP:  1.10D+00  9.94D-01  1.13D+00  8.47D-01
 E= -1063.74411269678     Delta-E=       -0.000000000100 Rises=F Damp=F
 DIIS: error= 8.62D-08 at cycle  15 NSaved=  15.
 NSaved=15 IEnMin=15 EnMin= -1063.74411269678     IErMin=15 ErrMin= 8.62D-08
 ErrMax= 8.62D-08  0.00D+00 EMaxC= 1.00D-01 BMatC= 9.22D-13 BMatP= 6.85D-12
 IDIUse=1 WtCom= 1.00D+00 WtEn= 0.00D+00
 Coeff-Com:  0.793D-06-0.150D-05-0.563D-05-0.582D-05-0.487D-05 0.164D-04
 Coeff-Com:  0.265D-03 0.727D-03 0.652D-03-0.374D-02-0.174D-01-0.422D-01
 Coeff-Com:  0.391D-01 0.315D+00 0.707D+00
 Coeff:      0.793D-06-0.150D-05-0.563D-05-0.582D-05-0.487D-05 0.164D-04
 Coeff:      0.265D-03 0.727D-03 0.652D-03-0.374D-02-0.174D-01-0.422D-01
 Coeff:      0.391D-01 0.315D+00 0.707D+00
 Gap=     0.197 Goal=   None    Shift=    0.000
 RMSDP=3.25D-08 MaxDP=1.37D-06 DE=-1.00D-10 OVMax= 8.72D-07

 Cycle  16  Pass 1  IDiag  1:
 RMSU=  1.47D-08    CP:  7.69D-01  2.02D-01  8.50D-01  5.68D-01  1.01D+00
                    CP:  1.07D+00  1.17D+00  1.00D+00  1.10D+00  1.11D+00
                    CP:  1.10D+00  9.99D-01  1.15D+00  9.35D-01  1.00D+00
 E= -1063.74411269682     Delta-E=       -0.000000000045 Rises=F Damp=F
 DIIS: error= 3.83D-08 at cycle  16 NSaved=  16.
 NSaved=16 IEnMin=16 EnMin= -1063.74411269682     IErMin=16 ErrMin= 3.83D-08
 ErrMax= 3.83D-08  0.00D+00 EMaxC= 1.00D-01 BMatC= 2.20D-13 BMatP= 9.22D-13
 IDIUse=1 WtCom= 1.00D+00 WtEn= 0.00D+00
 Coeff-Com: -0.249D-07 0.143D-06-0.686D-06-0.233D-05-0.177D-04-0.321D-04
 Coeff-Com:  0.144D-04 0.188D-03 0.989D-03 0.106D-02-0.523D-02-0.247D-01
 Coeff-Com: -0.291D-01 0.173D-01 0.371D+00 0.669D+00
 Coeff:     -0.249D-07 0.143D-06-0.686D-06-0.233D-05-0.177D-04-0.321D-04
 Coeff:      0.144D-04 0.188D-03 0.989D-03 0.106D-02-0.523D-02-0.247D-01
 Coeff:     -0.291D-01 0.173D-01 0.371D+00 0.669D+00
 Gap=     0.197 Goal=   None    Shift=    0.000
 RMSDP=1.75D-08 MaxDP=9.25D-07 DE=-4.50D-11 OVMax= 2.48D-07

 Cycle  17  Pass 1  IDiag  1:
 RMSU=  5.55D-09    CP:  7.69D-01  2.02D-01  8.50D-01  5.68D-01  1.01D+00
                    CP:  1.07D+00  1.17D+00  1.00D+00  1.10D+00  1.11D+00
                    CP:  1.10D+00  9.97D-01  1.16D+00  9.48D-01  1.10D+00
                    CP:  1.09D+00
 E= -1063.74411269686     Delta-E=       -0.000000000035 Rises=F Damp=F
 DIIS: error= 6.05D-09 at cycle  17 NSaved=  17.
 NSaved=17 IEnMin=17 EnMin= -1063.74411269686     IErMin=17 ErrMin= 6.05D-09
 ErrMax= 6.05D-09  0.00D+00 EMaxC= 1.00D-01 BMatC= 8.93D-15 BMatP= 2.20D-13
 IDIUse=1 WtCom= 1.00D+00 WtEn= 0.00D+00
 Coeff-Com: -0.848D-07 0.187D-06 0.209D-06-0.122D-06-0.478D-05-0.102D-04
 Coeff-Com: -0.164D-04-0.482D-05 0.217D-03 0.606D-03 0.605D-04-0.238D-02
 Coeff-Com: -0.101D-01-0.247D-01 0.377D-01 0.168D+00 0.830D+00
 Coeff:     -0.848D-07 0.187D-06 0.209D-06-0.122D-06-0.478D-05-0.102D-04
 Coeff:     -0.164D-04-0.482D-05 0.217D-03 0.606D-03 0.605D-04-0.238D-02
 Coeff:     -0.101D-01-0.247D-01 0.377D-01 0.168D+00 0.830D+00
 Gap=     0.197 Goal=   None    Shift=    0.000
 RMSDP=7.68D-09 MaxDP=4.23D-07 DE=-3.46D-11 OVMax= 6.84D-08

 SCF Done:  E(RMN15) =  -1063.74411270     A.U. after   17 cycles
            NFock= 17  Conv=0.77D-08     -V/T= 2.0025
 KE= 1.061095358701D+03 PE=-4.885595653058D+03 EE= 1.566052438233D+03
 Leave Link  502 at Wed Dec  6 05:54:39 2023, MaxMem=  2147483648 cpu:            4484.3 elap:             177.5
 (Enter /opt/gaussian/g16-c01/g16/l601.exe)
 Copying SCF densities to generalized density rwf, IOpCl= 0 IROHF=0.

 **********************************************************************

            Population analysis using the SCF Density.

 **********************************************************************

 Orbital symmetries:
       Occupied  (A) (A) (A) (A) (A) (A) (A) (A) (A) (A) (A) (A)
                 (A) (A) (A) (A) (A) (A) (A) (A) (A) (A) (A) (A)
                 (A) (A) (A) (A) (A) (A) (A) (A) (A) (A) (A) (A)
                 (A) (A) (A) (A) (A) (A) (A) (A) (A) (A) (A) (A)
                 (A) (A) (A) (A) (A) (A) (A) (A) (A) (A) (A) (A)
                 (A) (A) (A)
       Virtual   (A) (A) (A) (A) (A) (A) (A) (A) (A) (A) (A) (A)
                 (A) (A) (A) (A) (A) (A) (A) (A) (A) (A) (A) (A)
                 (A) (A) (A) (A) (A) (A) (A) (A) (A) (A) (A) (A)
                 (A) (A) (A) (A) (A) (A) (A) (A) (A) (A) (A) (A)
                 (A) (A) (A) (A) (A) (A) (A) (A) (A) (A) (A) (A)
                 (A) (A) (A) (A) (A) (A) (A) (A) (A) (A) (A) (A)
                 (A) (A) (A) (A) (A) (A) (A) (A) (A) (A) (A) (A)
                 (A) (A) (A) (A) (A) (A) (A) (A) (A) (A) (A) (A)
                 (A) (A) (A) (A) (A) (A) (A) (A) (A) (A) (A) (A)
                 (A) (A) (A) (A) (A) (A) (A) (A) (A) (A) (A) (A)
                 (A) (A) (A) (A) (A) (A) (A) (A) (A) (A) (A) (A)
                 (A) (A) (A) (A) (A) (A) (A) (A) (A) (A) (A) (A)
                 (A) (A) (A) (A) (A) (A) (A) (A) (A) (A) (A) (A)
                 (A) (A) (A) (A) (A) (A) (A) (A) (A) (A) (A) (A)
                 (A) (A) (A) (A) (A) (A) (A) (A) (A) (A) (A) (A)
                 (A) (A) (A) (A) (A) (A) (A) (A) (A) (A) (A) (A)
                 (A) (A) (A) (A) (A) (A) (A) (A) (A) (A) (A) (A)
                 (A) (A) (A) (A) (A) (A) (A) (A) (A) (A) (A) (A)
                 (A) (A) (A) (A) (A) (A) (A) (A) (A) (A) (A) (A)
                 (A) (A) (A) (A) (A) (A) (A) (A) (A) (A) (A) (A)
                 (A) (A) (A) (A) (A) (A) (A) (A) (A) (A) (A) (A)
                 (A) (A) (A) (A) (A) (A) (A) (A) (A) (A) (A) (A)
                 (A) (A) (A) (A) (A) (A) (A) (A) (A) (A) (A) (A)
                 (A) (A) (A) (A) (A) (A) (A) (A) (A) (A) (A) (A)
                 (A) (A) (A) (A) (A) (A) (A) (A) (A) (A) (A) (A)
                 (A) (A) (A) (A) (A) (A) (A) (A) (A) (A) (A) (A)
                 (A) (A) (A) (A) (A) (A) (A) (A) (A) (A) (A) (A)
                 (A) (A) (A) (A) (A) (A) (A) (A) (A) (A) (A) (A)
                 (A) (A) (A) (A) (A) (A) (A) (A) (A) (A) (A) (A)
                 (A) (A) (A) (A) (A) (A) (A) (A) (A) (A) (A) (A)
                 (A) (A) (A) (A) (A) (A) (A) (A) (A) (A) (A) (A)
                 (A) (A) (A) (A) (A) (A) (A) (A) (A) (A) (A) (A)
                 (A) (A) (A) (A) (A) (A) (A) (A)
 The electronic state is 1-A.
 Alpha  occ. eigenvalues --  -87.76516 -14.09613 -14.09424 -14.08827 -10.11149
 Alpha  occ. eigenvalues --  -10.09079 -10.08957 -10.07741 -10.07667 -10.05760
 Alpha  occ. eigenvalues --  -10.05519 -10.04687 -10.04650 -10.04466 -10.03291
 Alpha  occ. eigenvalues --  -10.03162 -10.02739  -7.74148  -5.92667  -5.92050
 Alpha  occ. eigenvalues --   -5.91543  -1.01462  -0.96653  -0.94973  -0.90275
 Alpha  occ. eigenvalues --   -0.87966  -0.84751  -0.81060  -0.78233  -0.76696
 Alpha  occ. eigenvalues --   -0.76217  -0.69333  -0.65748  -0.64638  -0.63438
 Alpha  occ. eigenvalues --   -0.61398  -0.58056  -0.56832  -0.54423  -0.53683
 Alpha  occ. eigenvalues --   -0.52756  -0.52545  -0.50219  -0.49206  -0.48019
 Alpha  occ. eigenvalues --   -0.47847  -0.46373  -0.45321  -0.44543  -0.43690
 Alpha  occ. eigenvalues --   -0.41182  -0.40489  -0.40121  -0.39620  -0.38701
 Alpha  occ. eigenvalues --   -0.37618  -0.34193  -0.33672  -0.32095  -0.27873
 Alpha  occ. eigenvalues --   -0.26711  -0.24682  -0.23303
 Alpha virt. eigenvalues --   -0.03645   0.00732   0.02741   0.02901   0.03044
 Alpha virt. eigenvalues --    0.03832   0.04010   0.04965   0.05136   0.05548
 Alpha virt. eigenvalues --    0.06513   0.06856   0.07221   0.08065   0.08716
 Alpha virt. eigenvalues --    0.08854   0.09561   0.09861   0.10882   0.11006
 Alpha virt. eigenvalues --    0.11726   0.12197   0.12875   0.12940   0.13154
 Alpha virt. eigenvalues --    0.13891   0.14298   0.14444   0.14714   0.15095
 Alpha virt. eigenvalues --    0.15248   0.15396   0.15648   0.16378   0.16418
 Alpha virt. eigenvalues --    0.16965   0.17138   0.17363   0.17727   0.18010
 Alpha virt. eigenvalues --    0.18446   0.18740   0.18784   0.18970   0.19368
 Alpha virt. eigenvalues --    0.19921   0.20663   0.20910   0.21272   0.21405
 Alpha virt. eigenvalues --    0.21629   0.21986   0.22043   0.22768   0.23445
 Alpha virt. eigenvalues --    0.23494   0.24142   0.24277   0.25114   0.25324
 Alpha virt. eigenvalues --    0.25972   0.26203   0.26475   0.26808   0.26897
 Alpha virt. eigenvalues --    0.27149   0.27618   0.27827   0.28180   0.28720
 Alpha virt. eigenvalues --    0.28972   0.29699   0.30070   0.30245   0.30744
 Alpha virt. eigenvalues --    0.31217   0.31314   0.31717   0.31986   0.32427
 Alpha virt. eigenvalues --    0.32831   0.33332   0.33626   0.33930   0.34170
 Alpha virt. eigenvalues --    0.34533   0.34933   0.35245   0.35566   0.35804
 Alpha virt. eigenvalues --    0.36474   0.36978   0.37561   0.37724   0.38233
 Alpha virt. eigenvalues --    0.38629   0.39245   0.40487   0.40717   0.41415
 Alpha virt. eigenvalues --    0.41837   0.42624   0.43209   0.43859   0.44714
 Alpha virt. eigenvalues --    0.45971   0.46474   0.48047   0.49360   0.50562
 Alpha virt. eigenvalues --    0.52790   0.53580   0.54458   0.57287   0.57526
 Alpha virt. eigenvalues --    0.57830   0.58838   0.58909   0.60259   0.60792
 Alpha virt. eigenvalues --    0.61088   0.62052   0.62217   0.62766   0.62902
 Alpha virt. eigenvalues --    0.64939   0.65762   0.66316   0.66591   0.66768
 Alpha virt. eigenvalues --    0.67781   0.68314   0.68613   0.69190   0.70169
 Alpha virt. eigenvalues --    0.70373   0.71267   0.72786   0.73345   0.74163
 Alpha virt. eigenvalues --    0.75224   0.75447   0.76041   0.77024   0.78077
 Alpha virt. eigenvalues --    0.78513   0.78966   0.79329   0.80415   0.81254
 Alpha virt. eigenvalues --    0.81571   0.82149   0.82375   0.83059   0.83286
 Alpha virt. eigenvalues --    0.87358   0.87634   0.88250   0.88889   0.89890
 Alpha virt. eigenvalues --    0.90207   0.90440   0.90939   0.91549   0.91929
 Alpha virt. eigenvalues --    0.92758   0.93542   0.93928   0.93971   0.94700
 Alpha virt. eigenvalues --    0.95059   0.96079   0.97035   0.97510   0.98192
 Alpha virt. eigenvalues --    0.98779   0.99750   1.00480   1.01032   1.02357
 Alpha virt. eigenvalues --    1.02849   1.03706   1.05516   1.06148   1.06365
 Alpha virt. eigenvalues --    1.08192   1.08398   1.09036   1.10323   1.11117
 Alpha virt. eigenvalues --    1.11259   1.12141   1.12923   1.13845   1.14234
 Alpha virt. eigenvalues --    1.16256   1.18124   1.21136   1.21967   1.22234
 Alpha virt. eigenvalues --    1.22326   1.25451   1.29853   1.31804   1.32247
 Alpha virt. eigenvalues --    1.35438   1.37411   1.38630   1.41280   1.42409
 Alpha virt. eigenvalues --    1.46041   1.47010   1.47997   1.51212   1.52418
 Alpha virt. eigenvalues --    1.53640   1.53994   1.56939   1.57663   1.58349
 Alpha virt. eigenvalues --    1.58711   1.58899   1.59585   1.60026   1.61147
 Alpha virt. eigenvalues --    1.61894   1.63254   1.64556   1.66640   1.67256
 Alpha virt. eigenvalues --    1.67379   1.68268   1.69890   1.71399   1.71865
 Alpha virt. eigenvalues --    1.72231   1.74322   1.75561   1.76177   1.77419
 Alpha virt. eigenvalues --    1.78501   1.81515   1.82531   1.85096   1.85765
 Alpha virt. eigenvalues --    1.87042   1.87468   1.88471   1.88995   1.89677
 Alpha virt. eigenvalues --    1.90633   1.91943   1.94321   1.95075   1.95461
 Alpha virt. eigenvalues --    1.95675   1.96753   1.97311   1.97998   1.99511
 Alpha virt. eigenvalues --    2.01881   2.02418   2.02922   2.04136   2.04331
 Alpha virt. eigenvalues --    2.07481   2.08405   2.11404   2.13471   2.14895
 Alpha virt. eigenvalues --    2.15250   2.17734   2.19728   2.20897   2.22930
 Alpha virt. eigenvalues --    2.23485   2.25218   2.26592   2.29794   2.36170
 Alpha virt. eigenvalues --    2.39508   2.39914   2.41042   2.42604   2.43981
 Alpha virt. eigenvalues --    2.44100   2.44727   2.45789   2.47153   2.49981
 Alpha virt. eigenvalues --    2.50874   2.51801   2.53169   2.54854   2.56698
 Alpha virt. eigenvalues --    2.59022   2.62201   2.65931   2.66367   2.68188
 Alpha virt. eigenvalues --    2.68773   2.70015   2.70270   2.71200   2.71932
 Alpha virt. eigenvalues --    2.73105   2.74401   2.74945   2.76145   2.76949
 Alpha virt. eigenvalues --    2.78055   2.78740   2.79646   2.81055   2.81703
 Alpha virt. eigenvalues --    2.82156   2.82517   2.85894   2.85970   2.87948
 Alpha virt. eigenvalues --    2.89669   2.90050   2.91333   2.93018   2.96052
 Alpha virt. eigenvalues --    2.97090   3.00405   3.03269   3.04817   3.05685
 Alpha virt. eigenvalues --    3.07192   3.08045   3.13326   3.17157   3.18299
 Alpha virt. eigenvalues --    3.22358   3.24595   3.28003   3.30205   3.33512
 Alpha virt. eigenvalues --    3.34850   3.36362   3.37705   3.41434   3.41491
 Alpha virt. eigenvalues --    3.43610   3.48132   3.50270   3.53855   3.66030
 Alpha virt. eigenvalues --    3.70516   3.78399   3.82710   3.83094   3.84279
 Alpha virt. eigenvalues --    3.87721   3.91810   3.96500   4.01802   4.02956
 Alpha virt. eigenvalues --    4.07054   4.07902   4.19568   4.47316   4.68703
 Alpha virt. eigenvalues --    4.69525   4.70977   4.74002   4.89381   4.92588
 Alpha virt. eigenvalues --    5.02144   8.06513  16.67269  16.92315  16.94616
 Alpha virt. eigenvalues --   22.47832  22.55024  22.76765  22.81675  22.82545
 Alpha virt. eigenvalues --   22.85245  22.86183  22.93181  22.94882  22.97392
 Alpha virt. eigenvalues --   22.97486  23.05060  23.06158  33.90621  33.93140
 Alpha virt. eigenvalues --   33.94776 182.52101
          Condensed to atoms (all electrons):
               1          2          3          4          5          6
     1  S   17.715889   0.122904  -0.007451  -0.001927   0.072044  -0.453378
     2  N    0.122904   7.194842  -0.000326  -0.001559  -0.570514  -0.202584
     3  N   -0.007451  -0.000326   6.730930  -0.001559   0.038702  -0.020340
     4  N   -0.001927  -0.001559  -0.001559   6.720126   0.029525  -0.032800
     5  C    0.072044  -0.570514   0.038702   0.029525  14.105679  -1.942938
     6  C   -0.453378  -0.202584  -0.020340  -0.032800  -1.942938  21.569569
     7  C   -1.147496   1.077918  -0.002514  -0.007132  -1.038544   3.147633
     8  C   -0.028047  -0.946318   0.001789   0.009838   1.971674  -5.211515
     9  C    0.073672   0.192906   0.051443   0.157899  -3.177087  -2.594981
    10  C   -0.497652  -0.211722   0.194269   0.038421  -3.430434  -0.628667
    11  C   -0.629490  -0.058722  -0.080472   0.001924  -3.406800   0.303736
    12  C    0.124106   0.136819   0.002467  -0.070881  -2.767372   0.782029
    13  C   -0.038682   0.010773  -0.223300  -0.176261   4.158899   1.331935
    14  C    0.534401   0.448480  -0.001999  -0.000575   0.013440  -3.310568
    15  C    0.404962  -0.469795   0.000446   0.001092   0.924484  -6.257368
    16  C   -0.023235   0.097686  -0.000075  -0.000016  -0.086230   0.533327
    17  C    0.255151  -0.000661  -0.000002  -0.000047  -0.064357  -0.454404
    18  H    0.011479  -0.001006   0.002077  -0.015862   0.071018  -0.140721
    19  H   -0.117613  -0.013097  -0.021912   0.002934  -0.195928  -0.089064
    20  H    0.000258   0.000763  -0.031266  -0.027753   0.117808   0.010221
    21  H   -0.004115  -0.002599   0.000010   0.000002   0.017978  -0.080234
    22  H   -0.016126  -0.003742  -0.000006  -0.000033   0.011381  -0.017136
    23  H   -0.000214   0.004057  -0.000001  -0.000001  -0.000316   0.008615
    24  H   -0.001700  -0.000261  -0.000000  -0.000001  -0.000120  -0.028123
    25  H   -0.002584  -0.000083   0.355332   0.000132  -0.028035  -0.006510
    26  H    0.006606   0.000058   0.358057  -0.000323   0.017971   0.007625
    27  H   -0.000027  -0.000326  -0.000292   0.361672   0.007451   0.006204
    28  H   -0.000070  -0.000226   0.000002   0.356383  -0.022286  -0.001706
               7          8          9         10         11         12
     1  S   -1.147496  -0.028047   0.073672  -0.497652  -0.629490   0.124106
     2  N    1.077918  -0.946318   0.192906  -0.211722  -0.058722   0.136819
     3  N   -0.002514   0.001789   0.051443   0.194269  -0.080472   0.002467
     4  N   -0.007132   0.009838   0.157899   0.038421   0.001924  -0.070881
     5  C   -1.038544   1.971674  -3.177087  -3.430434  -3.406800  -2.767372
     6  C    3.147633  -5.211515  -2.594981  -0.628667   0.303736   0.782029
     7  C   19.236577  -5.981376  -0.262373   0.404396   0.234668   0.318670
     8  C   -5.981376  24.165606   1.053789  -0.714275  -0.794320  -0.341518
     9  C   -0.262373   1.053789  15.266657   4.159558   0.187407   0.580024
    10  C    0.404396  -0.714275   4.159558  17.410278  -0.243278   0.499209
    11  C    0.234668  -0.794320   0.187407  -0.243278  12.106290  -0.218636
    12  C    0.318670  -0.341518   0.580024   0.499209  -0.218636  10.275323
    13  C    0.033065  -0.372547  -9.885304 -10.394231  -1.037065  -2.302958
    14  C   -2.717301  -5.859241  -0.060719   0.122674   0.066839   0.012909
    15  C   -7.921792   0.685977   0.306469  -0.294550  -0.158869  -0.053573
    16  C    0.502554  -0.597332   0.009389   0.007939   0.005977   0.005948
    17  C   -1.654867  -0.182575   0.050586  -0.094794  -0.018180   0.012091
    18  H   -0.054172   0.085636   0.523901   0.137081   0.063181  -0.262933
    19  H    0.038671  -0.042080   0.038302   0.274117   0.303260   0.023077
    20  H   -0.000790   0.004344  -0.149167  -0.134561  -0.077334  -0.139574
    21  H   -0.196881  -0.003978   0.001883  -0.008540  -0.003319  -0.000086
    22  H    0.081434  -0.014455  -0.004735   0.007146   0.001503  -0.001165
    23  H    0.065981   0.018065   0.000215   0.000711   0.000108   0.000081
    24  H    0.008926   0.038357   0.002107  -0.002599  -0.000454   0.000376
    25  H    0.000343  -0.001393   0.015637   0.004812   0.016874   0.043215
    26  H   -0.001608   0.004280  -0.004142  -0.020569  -0.031235  -0.015318
    27  H    0.002466  -0.000758  -0.046610  -0.003134  -0.015812   0.004281
    28  H   -0.000234  -0.000178   0.045291   0.015964   0.046229   0.000475
              13         14         15         16         17         18
     1  S   -0.038682   0.534401   0.404962  -0.023235   0.255151   0.011479
     2  N    0.010773   0.448480  -0.469795   0.097686  -0.000661  -0.001006
     3  N   -0.223300  -0.001999   0.000446  -0.000075  -0.000002   0.002077
     4  N   -0.176261  -0.000575   0.001092  -0.000016  -0.000047  -0.015862
     5  C    4.158899   0.013440   0.924484  -0.086230  -0.064357   0.071018
     6  C    1.331935  -3.310568  -6.257368   0.533327  -0.454404  -0.140721
     7  C    0.033065  -2.717301  -7.921792   0.502554  -1.654867  -0.054172
     8  C   -0.372547  -5.859241   0.685977  -0.597332  -0.182575   0.085636
     9  C   -9.885304  -0.060719   0.306469   0.009389   0.050586   0.523901
    10  C  -10.394231   0.122674  -0.294550   0.007939  -0.094794   0.137081
    11  C   -1.037065   0.066839  -0.158869   0.005977  -0.018180   0.063181
    12  C   -2.302958   0.012909  -0.053573   0.005948   0.012091  -0.262933
    13  C   23.516357   0.038215  -0.029269  -0.002081   0.003108  -0.212551
    14  C    0.038215  13.015570   3.431125   0.190674  -0.127768  -0.003150
    15  C   -0.029269   3.431125  16.080207  -1.608733   1.635087   0.043156
    16  C   -0.002081   0.190674  -1.608733   6.215665   0.347239  -0.002856
    17  C    0.003108  -0.127768   1.635087   0.347239   6.294438   0.001614
    18  H   -0.212551  -0.003150   0.043156  -0.002856   0.001614   0.658396
    19  H   -0.018308  -0.023854  -0.005661  -0.002305  -0.006779  -0.007058
    20  H    0.635840   0.000491   0.000740  -0.000051   0.000043  -0.009572
    21  H   -0.000268   0.523518   0.113366  -0.081189   0.021230   0.000249
    22  H    0.000611   0.060884   0.327311  -0.011395  -0.123971  -0.001186
    23  H   -0.000025  -0.130010  -0.061307   0.462026  -0.046124  -0.000044
    24  H   -0.000023  -0.018313  -0.088860  -0.034922   0.450508   0.000184
    25  H   -0.062582  -0.000015  -0.000127   0.000001  -0.000017   0.000037
    26  H    0.038199   0.000501   0.000397   0.000007   0.000054   0.000369
    27  H    0.040395   0.000234  -0.000402   0.000031  -0.000148  -0.006077
    28  H   -0.098512  -0.000072  -0.000020  -0.000002   0.000014   0.004524
              19         20         21         22         23         24
     1  S   -0.117613   0.000258  -0.004115  -0.016126  -0.000214  -0.001700
     2  N   -0.013097   0.000763  -0.002599  -0.003742   0.004057  -0.000261
     3  N   -0.021912  -0.031266   0.000010  -0.000006  -0.000001  -0.000000
     4  N    0.002934  -0.027753   0.000002  -0.000033  -0.000001  -0.000001
     5  C   -0.195928   0.117808   0.017978   0.011381  -0.000316  -0.000120
     6  C   -0.089064   0.010221  -0.080234  -0.017136   0.008615  -0.028123
     7  C    0.038671  -0.000790  -0.196881   0.081434   0.065981   0.008926
     8  C   -0.042080   0.004344  -0.003978  -0.014455   0.018065   0.038357
     9  C    0.038302  -0.149167   0.001883  -0.004735   0.000215   0.002107
    10  C    0.274117  -0.134561  -0.008540   0.007146   0.000711  -0.002599
    11  C    0.303260  -0.077334  -0.003319   0.001503   0.000108  -0.000454
    12  C    0.023077  -0.139574  -0.000086  -0.001165   0.000081   0.000376
    13  C   -0.018308   0.635840  -0.000268   0.000611  -0.000025  -0.000023
    14  C   -0.023854   0.000491   0.523518   0.060884  -0.130010  -0.018313
    15  C   -0.005661   0.000740   0.113366   0.327311  -0.061307  -0.088860
    16  C   -0.002305  -0.000051  -0.081189  -0.011395   0.462026  -0.034922
    17  C   -0.006779   0.000043   0.021230  -0.123971  -0.046124   0.450508
    18  H   -0.007058  -0.009572   0.000249  -0.001186  -0.000044   0.000184
    19  H    0.830850  -0.016148   0.001692   0.000834   0.000042  -0.000181
    20  H   -0.016148   0.752983   0.000005   0.000016  -0.000000   0.000001
    21  H    0.001692   0.000005   0.597643   0.002300  -0.027283  -0.001448
    22  H    0.000834   0.000016   0.002300   0.586836  -0.002671  -0.024720
    23  H    0.000042  -0.000000  -0.027283  -0.002671   0.601848  -0.022182
    24  H   -0.000181   0.000001  -0.001448  -0.024720  -0.022182   0.595185
    25  H    0.011110  -0.000167   0.000001   0.000003  -0.000000  -0.000000
    26  H   -0.015470   0.004979  -0.000007  -0.000008  -0.000000   0.000002
    27  H    0.000215   0.004099   0.000001   0.000067   0.000001  -0.000003
    28  H    0.000281  -0.000355   0.000000  -0.000009  -0.000000   0.000000
              25         26         27         28
     1  S   -0.002584   0.006606  -0.000027  -0.000070
     2  N   -0.000083   0.000058  -0.000326  -0.000226
     3  N    0.355332   0.358057  -0.000292   0.000002
     4  N    0.000132  -0.000323   0.361672   0.356383
     5  C   -0.028035   0.017971   0.007451  -0.022286
     6  C   -0.006510   0.007625   0.006204  -0.001706
     7  C    0.000343  -0.001608   0.002466  -0.000234
     8  C   -0.001393   0.004280  -0.000758  -0.000178
     9  C    0.015637  -0.004142  -0.046610   0.045291
    10  C    0.004812  -0.020569  -0.003134   0.015964
    11  C    0.016874  -0.031235  -0.015812   0.046229
    12  C    0.043215  -0.015318   0.004281   0.000475
    13  C   -0.062582   0.038199   0.040395  -0.098512
    14  C   -0.000015   0.000501   0.000234  -0.000072
    15  C   -0.000127   0.000397  -0.000402  -0.000020
    16  C    0.000001   0.000007   0.000031  -0.000002
    17  C   -0.000017   0.000054  -0.000148   0.000014
    18  H    0.000037   0.000369  -0.006077   0.004524
    19  H    0.011110  -0.015470   0.000215   0.000281
    20  H   -0.000167   0.004979   0.004099  -0.000355
    21  H    0.000001  -0.000007   0.000001   0.000000
    22  H    0.000003  -0.000008   0.000067  -0.000009
    23  H   -0.000000  -0.000000   0.000001  -0.000000
    24  H   -0.000000   0.000002  -0.000003   0.000000
    25  H    0.434369  -0.033763   0.000103  -0.000147
    26  H   -0.033763   0.440464  -0.000068   0.000081
    27  H    0.000103  -0.000068   0.430655  -0.031991
    28  H   -0.000147   0.000081  -0.031991   0.436297
 Mulliken charges:
               1
     1  S   -0.351665
     2  N    0.196337
     3  N   -0.344010
     4  N   -0.343219
     5  C    1.172909
     6  C   -0.227854
     7  C    1.833780
     8  C   -0.947450
     9  C   -0.532019
    10  C   -0.597569
    11  C   -0.564010
    12  C   -0.647082
    13  C    1.046571
    14  C   -0.206370
    15  C   -1.004491
    16  C    0.071959
    17  C   -0.296470
    18  H    0.114283
    19  H    0.050072
    20  H    0.054146
    21  H    0.130070
    22  H    0.141032
    23  H    0.128427
    24  H    0.128264
    25  H    0.253454
    26  H    0.242864
    27  H    0.247774
    28  H    0.250268
 Sum of Mulliken charges =  -0.00000
 Mulliken charges with hydrogens summed into heavy atoms:
               1
     1  S   -0.351665
     2  N    0.196337
     3  N    0.152307
     4  N    0.154823
     5  C    1.172909
     6  C   -0.227854
     7  C    1.833780
     8  C   -0.947450
     9  C   -0.417736
    10  C   -0.547496
    11  C   -0.564010
    12  C   -0.647082
    13  C    1.100716
    14  C   -0.076300
    15  C   -0.863459
    16  C    0.200387
    17  C   -0.168206
 Electronic spatial extent (au):  <R**2>=           5551.9018
 Charge=             -0.0000 electrons
 Dipole moment (field-independent basis, Debye):
    X=             -2.2539    Y=             -0.9944    Z=             -0.2435  Tot=              2.4755
 Quadrupole moment (field-independent basis, Debye-Ang):
   XX=            -76.3256   YY=            -90.9121   ZZ=           -115.0274
   XY=             -1.2147   XZ=             -0.3440   YZ=             -1.7368
 Traceless Quadrupole moment (field-independent basis, Debye-Ang):
   XX=             17.7628   YY=              3.1763   ZZ=            -20.9390
   XY=             -1.2147   XZ=             -0.3440   YZ=             -1.7368
 Octapole moment (field-independent basis, Debye-Ang**2):
  XXX=            -94.0119  YYY=              1.8517  ZZZ=             -1.0064  XYY=            -40.8719
  XXY=              2.2267  XXZ=              1.1708  XZZ=             -0.0163  YZZ=             -1.5746
  YYZ=             -0.6373  XYZ=             15.3746
 Hexadecapole moment (field-independent basis, Debye-Ang**3):
 XXXX=          -5037.5577 YYYY=          -1067.8172 ZZZZ=           -175.4096 XXXY=             -8.2309
 XXXZ=             -4.7702 YYYX=            -15.9895 YYYZ=            -29.3188 ZZZX=             -1.7136
 ZZZY=              0.5753 XXYY=           -988.2355 XXZZ=          -1199.9437 YYZZ=           -266.8816
 XXYZ=             -5.9804 YYXZ=              2.1511 ZZXY=             -1.4966
 N-N= 1.194703743428D+03 E-N=-4.885595653041D+03  KE= 1.061095358701D+03
 No NMR shielding tensors so no spin-rotation constants.
 Leave Link  601 at Wed Dec  6 05:54:40 2023, MaxMem=  2147483648 cpu:              16.6 elap:               0.9
 (Enter /opt/gaussian/g16-c01/g16/l701.exe)
 ... and contract with generalized density number  0.
 Compute integral first derivatives.
 Leave Link  701 at Wed Dec  6 05:54:41 2023, MaxMem=  2147483648 cpu:              17.5 elap:               0.9
 (Enter /opt/gaussian/g16-c01/g16/l702.exe)
 L702 exits ... SP integral derivatives will be done elsewhere.
 Leave Link  702 at Wed Dec  6 05:54:41 2023, MaxMem=  2147483648 cpu:               0.6 elap:               0.1
 (Enter /opt/gaussian/g16-c01/g16/l703.exe)
 Integral derivatives from FoFJK, PRISM(SPDF).
 Compute integral first derivatives, UseDBF=F ICtDFT=           0.
 Calling FoFJK, ICntrl=      2127 FMM=F ISym2X=0 I1Cent= 0 IOpClX= 0 NMat=1 NMatS=1 NMatT=0.
 FoFJK:  IHMeth= 1 ICntrl=    2127 DoSepK=F KAlg= 0 I1Cent=           0 FoldK=F
 IRaf=         0 NMat=       1 IRICut=       1 DoRegI=T DoRafI=F ISym2E= 0 IDoP0=0 IntGTp=1.
 FoFCou: FMM=F IPFlag=           0 FMFlag=      100000 FMFlg1=         800
         NFxFlg=           0 DoJE=F BraDBF=F KetDBF=F FulRan=T
         wScrn=  0.000000 ICntrl=      2127 IOpCl=  0 I1Cent=           0 NGrid=           0
         NMat0=    1 NMatS0=      1 NMatT0=    0 NMatD0=    1 NMtDS0=    0 NMtDT0=    0
 Symmetry not used in FoFCou.
 Leave Link  703 at Wed Dec  6 05:54:53 2023, MaxMem=  2147483648 cpu:             315.0 elap:              12.3
 (Enter /opt/gaussian/g16-c01/g16/l716.exe)
 Dipole        =-8.86747755D-01-3.91224420D-01-9.57848461D-02
 ***** Axes restored to original set *****
 -------------------------------------------------------------------
 Center     Atomic                   Forces (Hartrees/Bohr)
 Number     Number              X              Y              Z
 -------------------------------------------------------------------
      1       16           0.010306943    0.016194517    0.004930907
      2        7          -0.003032856    0.013511887    0.004667685
      3        7           0.009841496   -0.016898878    0.001909175
      4        7           0.009216633    0.018148775   -0.001920397
      5        6          -0.018837915   -0.002897798   -0.000731843
      6        6           0.013689937   -0.025053732   -0.007452234
      7        6           0.013299642    0.010776926    0.001847067
      8        6           0.004749738   -0.013923281   -0.002792630
      9        6           0.003467698   -0.006047043    0.000419377
     10        6          -0.003388590    0.005223687   -0.000923515
     11        6          -0.015322573    0.018499615   -0.001681970
     12        6          -0.012787741   -0.020875758    0.002093986
     13        6          -0.001764781    0.000536876    0.000042155
     14        6           0.001323261   -0.005433893   -0.001359132
     15        6           0.004254800    0.001977200    0.000453249
     16        6          -0.003485181    0.015311060    0.003639263
     17        6          -0.012762810   -0.012453182   -0.002945641
     18        1           0.001179647    0.004142659   -0.000667957
     19        1           0.003592193   -0.002579775    0.000244653
     20        1           0.001175062    0.000116928    0.000007344
     21        1          -0.000935143   -0.001447741   -0.000353679
     22        1          -0.002409532    0.002213554    0.000450228
     23        1          -0.002208281   -0.000047837    0.000015552
     24        1          -0.002016310    0.000871632    0.000223689
     25        1           0.005556653    0.002212925   -0.000295930
     26        1          -0.004180814   -0.003923326    0.000457326
     27        1          -0.004104161    0.003755360   -0.000575967
     28        1           0.005582986   -0.001911355    0.000299240
 -------------------------------------------------------------------
 Cartesian Forces:  Max     0.025053732 RMS     0.007929454
 Leave Link  716 at Wed Dec  6 05:54:54 2023, MaxMem=  2147483648 cpu:               0.8 elap:               0.1
 (Enter /opt/gaussian/g16-c01/g16/l103.exe)

 GradGradGradGradGradGradGradGradGradGradGradGradGradGradGradGradGradGrad
 Berny optimization.
 FormGI is forming the generalized inverse of G from B-inverse, IUseBI=4.
[...]
 ,0.00000392,-0.00000878,-0.00002006,-0.00000186,-0.00000082,-0.0000049
 3,0.00395083,0.02622597,0.02607035,-0.00063667,0.00072658,0.00006330,0
 .00243761,-0.00191402,-0.00022031,0.00003541,-0.00005308,-0.00001475,0
 .00001146,0.00000691,-0.00000307,0.00004163,-0.00008128,-0.00001982,0.
 00004400,0.00059621,0.00003652,-0.00275871,0.00259991,0.00030715,0.008
 49306,0.02384685,0.00187850,-0.00004376,0.00002216,0.00001473,0.000044
 61,0.00004285,-0.00000147,-0.00003549,0.00002488,-0.00000238,-0.000020
 54,-0.00003711,-0.00000767,0.00001196,-0.00001261,0.00000895,-0.001169
 13,0.00028959,0.00002052,-0.06604737,-0.05110316,-0.00385646,-0.004843
 41,-0.00132582,0.00000421,0.00078264,-0.02828467,-0.00224100,-0.000050
 19,-0.00001470,0.00001094,0.00000045,-0.00003811,0.00000698,0.00000548
 ,-0.00000620,-0.00000064,0.00010579,-0.00003218,-0.00001237,0.06270885
 ,0.00009704,-0.00016596,-0.00003192,-0.00095376,0.00139086,0.00041003,
 0.00001408,-0.00000328,0.00000120,0.00003089,0.00005368,-0.00001566,-0
 .00007078,-0.00001937,-0.00000255,0.00019572,-0.00035891,0.00001457,0.
 00268115,-0.00084038,-0.00057363,-0.00693779,-0.01537691,-0.00152510,0
 .00009161,-0.00000651,-0.00000135,0.00005226,-0.00002376,0.00000086,-0
 .00003531,0.00001674,-0.00000112,-0.00003797,-0.00003636,0.00000338,0.
 00002310,0.00001933,-0.00000221,0.00056158,0.00047246,0.00013031,-0.05
 046231,-0.33727895,-0.02386861,-0.00165766,0.00165519,-0.00049181,0.00
 119344,-0.00477679,-0.00068205,0.00001731,0.00000570,-0.00000243,-0.00
 000346,0.00003909,-0.00000369,0.00000498,0.00000526,0.00000074,-0.0000
 4779,-0.00007530,0.00007414,0.05545995,0.35505390,0.00000552,-0.000048
 45,0.00030318,-0.00010219,0.00040833,-0.00363154,0.00000183,0.00000494
 ,-0.00001057,-0.00000031,0.00001194,-0.00003332,0.00000857,-0.00000007
 ,0.00013917,0.00000820,0.00000217,-0.00038081,0.00029486,-0.00054645,0
 .00579822,-0.00062564,-0.00180505,0.00416701,0.00000159,-0.00001417,-0
 .00002315,0.00002527,0.00000543,-0.00001333,-0.00002441,-0.00001580,0.
 00003839,0.00001078,-0.00001462,0.00002536,-0.00000023,0.00002332,-0.0
 0000659,0.00003293,0.00013105,-0.00119513,-0.00380426,-0.02387862,-0.0
 3781369,-0.00000760,-0.00049844,0.00784175,0.00011839,-0.00040591,0.00
 351679,0.00000875,-0.00000328,0.00002964,0.00000132,0.00000286,-0.0000
 2724,0.,0.00000061,-0.00000953,-0.00001411,0.00007455,-0.00099261,0.00
 412296,0.02617147,0.02675259,-0.00054345,-0.00069905,-0.00006044,0.000
 11591,-0.00024125,-0.00002123,-0.00005951,0.00006975,0.00001846,-0.000
 05188,-0.00007111,0.00002570,0.00002403,-0.00012524,-0.00001560,-0.000
 20368,0.00064707,0.00006065,-0.00168176,0.00329479,0.00035690,0.000242
 05,0.00060067,0.00001907,-0.00009442,0.00002116,0.00000030,-0.00007724
 ,-0.00000557,-0.00000813,0.00009081,-0.00007581,0.00000188,0.00005754,
 0.00006362,-0.00000410,-0.00002702,-0.00000850,-0.00000406,-0.01698056
 ,-0.01012631,-0.00063334,0.00168259,-0.00064872,-0.00000836,-0.3126523
 7,-0.09147068,-0.00498226,-0.00101384,0.00118855,0.00012510,0.00001490
 ,0.00000133,-0.00000264,0.00001456,-0.00002309,0.00000544,-0.00001272,
 -0.00000250,0.00000065,0.00085773,0.00017642,-0.00003470,-0.00015858,0
 .00010368,0.00001007,0.32982831,0.00055669,0.00070716,-0.00000417,-0.0
 0042621,0.00033175,0.00005491,0.00000166,-0.00000060,0.00000041,0.0000
 0358,0.00000591,-0.00000051,0.00001500,0.00010002,0.00003739,0.0002821
 2,-0.00052400,-0.00004829,0.00358393,-0.00176934,-0.00071956,0.0010968
 6,-0.00119418,-0.00003372,0.00002360,-0.00002100,0.00000999,0.00001110
 ,0.00000839,0.00000096,-0.00001414,0.00000694,0.00000242,0.00001078,0.
 00000111,-0.00000862,0.00000533,0.00001246,0.00000106,0.02004704,0.009
 75472,0.00031814,-0.00036119,-0.00538998,-0.00092026,-0.09190194,-0.08
 996284,-0.00355188,-0.02922723,-0.00495126,-0.00038200,0.00000764,0.00
 000409,-0.00000133,-0.00000368,0.00001157,-0.00000391,0.00000006,0.000
 00162,-0.00000088,-0.00066638,0.00080250,0.00044117,-0.00132240,-0.000
 33928,-0.00002720,0.09773157,0.09143344,0.00007524,-0.00001935,0.00076
 546,-0.00004366,0.00005120,-0.00033967,-0.00000026,0.00000220,-0.00000
 395,0.00000386,0.00000282,-0.00000775,-0.00001776,0.00003941,-0.000362
 71,0.00003818,-0.00004489,-0.00001762,0.00034317,-0.00069364,0.0065838
 2,0.00008060,-0.00004321,-0.00075622,0.00002862,-0.00000008,-0.0000059
 4,-0.00001727,-0.00000278,0.00001545,0.00001247,-0.00000319,-0.0000351
 7,-0.00000977,0.00001485,0.00004831,-0.00000819,-0.00000771,-0.0000053
 3,0.00179918,0.00058270,0.00372439,0.00000372,-0.00091595,0.00598079,-
 0.00501198,-0.00355937,-0.03592202,-0.00232419,-0.00064281,0.00292394,
 -0.00000013,-0.00000193,-0.00001301,-0.00000113,0.00000404,0.00002952,
 0.00000101,-0.00000002,0.00000755,-0.00010178,0.00043054,-0.00455686,-
 0.00010279,-0.00003851,0.00014164,0.00524633,0.00447113,0.02538030,0.0
 0014848,0.00002919,-0.00000171,-0.00100236,0.00125481,0.00012155,-0.00
 005337,0.00005738,0.00001493,-0.00005584,-0.00008459,0.00003192,0.0000
 1958,0.00013676,0.00000211,-0.00033774,-0.00029753,-0.00002397,-0.0003
 6515,-0.00078153,-0.00007786,-0.00314268,-0.00344734,-0.00016627,-0.00
 008556,0.00000464,-0.00000285,-0.00009195,-0.00004060,0.00000057,0.000
 05716,-0.00006085,0.00000504,0.00008941,0.00009718,-0.00001242,-0.0000
 4052,-0.00000017,-0.00000629,0.00127941,-0.00164196,-0.00009562,-0.017
 33554,0.02024451,0.00179690,0.00733520,-0.00565600,-0.00049255,-0.2302
 7047,0.14048560,0.01303758,0.00001582,0.00000949,-0.00000173,0.0000072
 8,-0.00000360,0.00000086,-0.00001202,-0.00000009,0.00000151,0.00020382
 ,-0.00028936,-0.00002250,0.00106118,-0.00031820,-0.00007436,0.00060600
 ,0.00054260,0.00000693,0.24195274,0.00004088,-0.00002708,0.00002560,-0
 .00015259,0.00044592,-0.00001511,0.00001875,-0.00002422,-0.00000539,0.
 00002001,0.00002668,-0.00000924,-0.00001948,0.00007360,0.00001159,-0.0
 0020852,0.00004917,0.00004782,-0.00127733,-0.00030780,0.00003496,-0.00
 287849,0.00010019,-0.00057487,0.00004365,0.00000025,0.00000879,-0.0000
 0455,-0.00000606,-0.00000096,-0.00001631,0.00003587,-0.00000109,-0.000
 03498,-0.00001911,0.00000133,0.00000837,-0.00000765,0.00000276,-0.0019
 4502,-0.00498886,-0.00083460,-0.01034607,0.01045314,0.00062157,0.02495
 814,-0.01355358,-0.00155956,0.14071989,-0.17152841,-0.01211857,-0.0000
 0448,0.,-0.00000063,-0.00000504,0.00000666,-0.00000186,0.00000453,0.00
 000046,-0.00000114,0.00112367,-0.00079082,-0.00008992,0.00060929,0.000
 59225,0.00042226,-0.00039698,0.00096934,0.00037541,-0.15024622,0.17849
 980,0.00000193,0.00002187,-0.00028070,0.00000999,-0.00001710,0.0006471
 8,0.00000091,-0.00000495,-0.00000600,0.00000492,0.00000726,-0.00001024
 ,0.00000009,0.00001835,-0.00013659,-0.00002343,0.00004823,-0.00056674,
 -0.00010497,0.00002522,-0.00071180,-0.00012098,-0.00059084,0.00776092,
 0.00000336,-0.00000587,-0.00001579,-0.00000707,0.00000611,0.00002360,-
 0.00000655,0.00000287,0.00001887,0.00000194,-0.00000637,0.00001123,0.0
 0000020,0.00000505,-0.00000421,-0.00011954,-0.00084020,0.00566340,-0.0
 0063481,0.00036460,0.00356581,0.00196071,-0.00127844,0.00280393,0.0130
 3533,-0.01212364,-0.03740293,-0.00000090,0.00000064,0.00000381,-0.0000
 0387,-0.00000315,-0.00000457,-0.00000017,-0.00000002,-0.00000012,0.000
 09154,-0.00007482,0.00017072,-0.00000640,0.00042785,-0.00465464,-0.000
 06635,0.00036501,-0.00358578,-0.01401232,0.01365221,0.02669493,0.00002
 482,0.00002426,0.00001441,0.00002098,0.00000254,-0.00000716,-0.4125187
 8,-0.04262828,-0.11949581,0.00004042,-0.00025624,0.00006469,-0.0008927
 2,-0.00045848,0.00025142,-0.00013224,0.00014455,-0.00001228,0.00001142
 ,0.00002862,-0.00001017,-0.00005603,0.00000519,0.00001774,0.00072588,-
 0.00030083,-0.00006989,0.00102545,0.00300259,-0.00073584,-0.01800920,-
 0.00124730,-0.00576572,-0.00090291,0.00078116,0.00104773,0.00263664,-0
 .00292858,0.00092742,-0.00001271,-0.00001666,0.00000108,-0.00000877,0.
 00000755,0.00000350,0.00001980,-0.00000789,0.00000373,0.00000928,0.000
 01432,-0.00000299,-0.00001957,0.00002156,-0.00014254,0.00027636,-0.000
 00548,-0.00016591,-0.00016098,0.00061012,-0.00088531,-0.00000043,0.000
 00411,-0.00000221,-0.00000379,-0.00000045,-0.00000090,0.00000565,0.000
 00079,-0.00000083,0.00000532,-0.00000292,-0.00000091,0.43694252,-0.000
 01247,-0.00004857,-0.00001253,0.00010028,0.00001285,0.00002384,-0.0472
 8554,-0.06921212,-0.00018790,-0.00001589,0.00022857,-0.00006598,0.0010
 5779,0.00058458,-0.00016804,0.00016340,-0.00029928,-0.00001758,-0.0000
 2938,0.00001152,0.00000422,0.00000715,-0.00001273,-0.00001978,-0.00003
 299,0.00005696,0.00006522,0.00137795,-0.00489181,0.00054341,0.03099720
 ,0.00683507,0.00909322,-0.00025058,-0.00038353,-0.00006453,0.00165965,
 0.00149994,-0.00055551,0.00002761,0.00000981,0.00000440,0.00002767,-0.
 00000588,0.00000231,-0.00002377,0.00002140,0.00000391,-0.00001655,-0.0
 0002919,-0.00000462,-0.00010096,-0.00002685,-0.00008118,0.00019281,0.0
 0011522,-0.00004391,-0.00140509,-0.00052060,0.00020043,0.00000081,-0.0
 0000305,-0.00000002,0.00000191,0.00000050,-0.00000042,-0.00000358,-0.0
 0000004,-0.00000101,-0.00000249,0.00000187,0.00000096,0.04048655,0.065
 10863,-0.00004133,-0.00002458,-0.00002354,-0.00004747,-0.00002101,-0.0
 0007338,-0.15432574,0.00134017,-0.04945047,0.00016770,0.00005505,-0.00
 014811,0.00086853,-0.00089769,0.00165440,0.00014000,0.00003839,-0.0000
 8052,-0.00002344,-0.00003430,0.00000770,0.00002411,-0.00000779,0.00000
 511,0.00005424,0.00087185,-0.00002293,-0.00135711,0.00006704,0.0020364
 5,0.00827190,-0.00723566,-0.00427920,-0.00028447,-0.00023452,-0.000687
 68,0.00000632,0.00103699,-0.00062534,0.00001390,0.00002399,-0.00000467
 ,0.00001581,-0.00001525,0.00000891,-0.00002421,0.00001162,0.00000587,-
 0.00001917,-0.00001675,-0.00001167,0.00006583,-0.00000563,-0.00006083,
 -0.00007753,-0.00008561,-0.00065525,0.00018319,0.00063192,0.00043656,-
 0.00000102,-0.00000688,0.00000539,0.00000536,0.00000070,0.00000295,-0.
 00000809,-0.00000013,0.00000105,-0.00000645,0.00000284,0.00000265,0.13
 136826,0.00387685,0.05059228,-0.00004773,0.00000794,-0.00003502,0.0000
 3264,-0.00012966,-0.00000460,-0.15092996,-0.15099864,0.05497247,-0.000
 42348,-0.00007221,0.00012671,-0.00021865,-0.00008327,-0.00034470,0.000
 03137,0.00022512,0.00000850,-0.00014925,-0.00001258,0.00003068,0.00004
 246,-0.00003665,0.00000497,-0.00051764,-0.00002053,-0.00005741,0.00135
 692,0.00207263,-0.00006492,0.01367159,0.01711970,-0.00722268,0.0013468
 3,0.00053918,0.00005236,-0.00249567,0.00298519,-0.00006140,0.00002613,
 -0.00002188,-0.00001066,-0.00000910,0.00000162,0.00000177,0.00000198,0
 .00001186,0.00000566,0.00000857,-0.00000722,-0.00000495,-0.00002265,-0
 .00008501,0.00010910,-0.00079364,-0.00109747,0.00032550,0.00024083,0.0
 0022490,0.00002958,-0.00000609,0.00000345,0.00000044,0.00000395,-0.000
 00776,-0.00000068,0.00000689,-0.00000075,-0.00000007,0.00000538,-0.000
 00352,-0.00000034,-0.00906798,-0.02694757,0.01510633,0.14788778,-0.000
 03878,-0.00004334,0.00001311,-0.00011561,-0.00003873,0.00000888,-0.147
 13234,-0.31993248,0.12212862,0.00048524,-0.00000561,-0.00019105,0.0001
 9929,-0.00097698,-0.00086959,0.00024416,0.00021597,0.00004427,-0.00005
 571,-0.00003566,-0.00001778,-0.00000134,0.00000897,-0.00000503,0.00009
 495,0.00082157,0.00005912,-0.00246042,0.00282807,-0.00111553,-0.014180
 95,-0.02506341,0.00997032,-0.00135175,-0.00113285,-0.00003824,0.004363
 08,-0.00137705,0.00076724,0.00003768,0.00004074,0.00000332,0.00002840,
 -0.00002868,-0.00000429,-0.00004263,0.00002652,0.00000104,-0.00003449,
 -0.00003430,-0.00000143,0.00006975,0.00003537,0.00008916,0.00097004,0.
 00012359,0.00078948,0.00002491,0.00016993,0.00006040,-0.00000466,-0.00
 000998,-0.00000006,0.00000589,0.00000140,0.00000145,-0.00001131,0.0000
 0117,0.00000064,-0.00000820,0.00000255,0.00000096,0.00269986,0.0010479
 7,0.00065346,0.15629020,0.34348004,-0.00004038,-0.00004042,0.00002570,
 -0.00010299,-0.00007840,0.00002587,0.06713219,0.15457469,-0.06042090,-
 0.00000331,0.00008990,-0.00023963,0.00006811,0.00024630,-0.00075809,0.
 00024450,0.00023354,-0.00002446,-0.00011393,-0.00003756,-0.00003657,0.
 00005293,-0.00000384,-0.00000494,-0.00091452,0.00012137,0.00001663,-0.
 00092112,-0.00000821,-0.00047515,0.00314214,-0.01014497,-0.00431814,0.
 00087433,-0.00111615,0.00192214,0.00038674,0.00122764,0.00194797,0.000
 04103,0.00002172,-0.00000972,0.00001190,-0.00002045,-0.00000191,-0.000
 03536,0.00002504,-0.00000064,-0.00002034,-0.00002968,-0.00000497,0.000
 01173,-0.00002380,-0.00001480,-0.00055573,0.00019371,0.00047575,0.0000
 2046,-0.00003116,-0.00076336,-0.00000510,-0.00000652,0.00000839,0.0000
 0729,-0.00000261,0.00000417,-0.00000598,-0.00000028,0.00000475,-0.0000
 0470,0.00000104,0.00000260,-0.00630028,-0.01264103,0.00118454,-0.06289
 433,-0.13245265,0.06146141,0.00005611,0.00009189,0.00000598,0.00005165
 ,0.00015613,-0.00002523,-0.00036824,0.00002848,0.00009498,-0.19037799,
 0.17605404,0.04540800,-0.00018250,0.00032638,-0.00052054,0.00003973,-0
 .00027001,0.00006399,0.00006662,0.00002655,-0.00001634,-0.00009623,0.0
 0002321,0.00001909,0.00129851,-0.00241961,0.00005580,-0.00048289,-0.00
 020232,0.00000002,0.00124135,-0.00024496,0.00005528,0.01370136,-0.0133
 1693,-0.00411046,-0.00164379,-0.00310618,0.00038803,-0.00001406,0.0000
 1009,0.00000672,0.00001024,-0.00001920,-0.00001578,0.00000939,-0.00000
 582,-0.00000563,-0.00000256,0.00001343,0.00000983,-0.00085642,0.001072
 53,0.00027725,-0.00003630,0.00008993,0.00010776,0.00025704,-0.00020437
 ,0.00006009,0.00000337,0.00000375,0.00000097,-0.00001776,0.00000816,0.
 00000521,0.00000421,0.00000271,0.00000096,0.00000155,-0.00000242,-0.00
 000085,-0.00000333,0.00002677,-0.00002385,0.00001541,-0.00006127,-0.00
 003203,0.18895166,0.00005644,0.00002680,-0.00001078,0.00019803,-0.0000
 2195,0.00000311,-0.00051672,-0.00005573,0.00017328,0.17378210,-0.31228
 409,-0.08034955,-0.00010686,-0.00083207,0.00078763,-0.00019519,-0.0000
 8974,-0.00002313,0.00003319,0.00005307,0.00000387,-0.00006821,0.000000
 72,0.00000846,0.00220076,0.00286648,0.00064768,-0.00035800,0.00077645,
 -0.00013192,0.00168915,-0.00080384,0.00034400,0.01877428,-0.02469499,-
 0.00783627,-0.00425632,-0.00241100,-0.00025712,-0.00001925,-0.00003446
 ,-0.00000207,-0.00001218,0.00004180,0.00000608,0.00003925,-0.00001305,
 0.00000101,0.00002705,0.00001945,0.00000229,-0.00111542,0.00003194,-0.
 00065820,-0.00006387,0.00003881,-0.00008541,-0.00000364,0.00012480,-0.
 00014615,0.00000083,0.00000631,-0.00000036,-0.00000236,-0.00000530,-0.
 00000440,0.00000906,-0.00000078,-0.00000132,0.00001308,-0.00000292,-0.
 00000134,0.00000526,0.00001318,-0.00004385,0.00007297,-0.00013317,-0.0
 0005229,-0.18487395,0.33187438,-0.00002028,-0.00000409,0.00001612,-0.0
 0011069,0.00008237,-0.00009883,0.00008110,-0.00011966,-0.00025696,0.06
 115174,-0.11036168,-0.02984778,0.00012951,-0.00006109,-0.00085455,0.00
 023076,-0.00002740,0.00003099,0.00000397,-0.00003487,-0.00000344,-0.00
 000727,0.00001067,0.00002005,-0.00120871,-0.00064921,-0.00068255,-0.00
 077780,-0.00038719,0.00005583,0.00048463,0.00146061,0.00176380,-0.0001
 1024,0.01246147,-0.00436483,0.00098770,-0.00064032,0.00217008,0.000013
 39,0.00003158,0.00000552,0.00002154,-0.00002315,-0.00003656,-0.0000315
 7,0.00001512,-0.00001156,-0.00002657,-0.00001769,-0.00000262,-0.000358
 95,-0.00017642,0.00054223,-0.00000438,0.00000760,0.00000776,0.00002503
 ,-0.00007300,-0.00074237,0.00000121,-0.00000541,0.00000434,-0.00000090
 ,0.00000485,0.00002600,-0.00000728,0.00000054,0.00000488,-0.00000954,0
 .00000184,0.00000650,-0.00005096,0.00004252,0.00005274,-0.00004634,0.0
 0005712,-0.00005799,-0.05321838,0.08695965,0.03274955,-0.00002564,0.00
 000233,-0.00000227,0.00005160,0.00000223,0.00001349,0.00000634,0.00022
 323,0.00003486,-0.41752758,-0.01356339,-0.12015842,-0.00083561,0.00011
 875,0.00021125,-0.00010837,-0.00021202,0.00001254,-0.00001718,0.000013
 36,-0.00001286,-0.00001539,-0.00001175,-0.00000385,0.00154616,-0.00225
 487,-0.00041802,0.00065089,0.00046440,-0.00008458,-0.00081628,-0.00070
 629,0.00107294,-0.01418447,-0.00176668,-0.00446121,0.00242080,0.003084
 10,0.00051786,-0.00000711,-0.00001574,0.00000839,-0.00001103,0.0000108
 4,0.00000202,0.00001459,-0.00000727,-0.00000260,0.00001173,0.00001144,
 0.00000471,0.00029783,0.00001094,-0.00015695,-0.00001415,-0.00003464,-
 0.00015029,-0.00025711,-0.00066934,-0.00076392,-0.00000040,0.00000409,
 -0.00000093,-0.00000266,-0.00000171,-0.00000158,0.00000586,0.00000086,
 -0.00000045,0.00000489,-0.00000226,-0.00000146,0.00004490,-0.00000067,
 -0.00005159,0.00000312,-0.00001397,-0.00004324,-0.01162612,-0.00530946
 ,-0.00714073,0.44039038,-0.00008444,0.00004233,-0.00000209,0.00002702,
 0.00001686,-0.00000236,0.00000400,0.00026203,0.00003373,-0.01338424,-0
 .06765631,-0.01195677,-0.00111063,0.00073576,0.00034067,-0.00017459,-0
 .00039456,0.00003458,0.00003547,-0.00004679,-0.00001565,0.00000888,-0.
 00000405,0.00000799,-0.00084340,-0.00533999,0.00025945,0.00013935,-0.0
 0006202,-0.00007638,0.00017321,-0.00039783,0.00015894,-0.03206212,0.00
 287489,-0.01069675,-0.00150636,0.00156646,0.00037131,-0.00004105,0.000
 00504,-0.00000229,-0.00002506,0.00001234,-0.00000203,0.00002104,-0.000
 02965,-0.00000054,0.00001990,0.00003200,0.00000236,-0.00015922,0.00010
 910,-0.00007152,0.00011577,0.00000391,0.00005017,0.00144475,-0.0005175
 7,-0.00018315,0.00000095,0.00000251,-0.00000006,-0.00000529,0.00000070
 ,0.00000251,0.00000201,0.00000110,0.00000085,0.00000347,-0.00000124,-0
 .00000044,0.00001406,-0.00011440,0.00001876,-0.00003002,0.00000838,-0.
 00004496,0.02679299,0.00550892,0.01144526,0.02062352,0.06338206,0.0000
 0544,-0.00001306,-0.00003399,-0.00010821,0.00000929,-0.00001964,0.0001
 7313,-0.00007008,-0.00014317,-0.15416994,-0.01768452,-0.04638559,0.000
 90701,0.00136403,0.00148835,0.00013311,0.00013668,-0.00009149,0.000023
 65,-0.00002671,-0.00003104,0.00003591,0.00000933,0.00002780,-0.0014049
 2,0.00049926,0.00210976,0.00017885,-0.00096292,0.00009169,-0.00033274,
 0.00015623,-0.00072977,0.01126330,0.00736406,-0.00407885,0.00034642,-0
 .00128495,-0.00056064,0.00000413,0.00002333,0.00001071,0.00000919,-0.0
 0001612,-0.00000525,-0.00002397,0.00000489,0.00000066,-0.00001515,-0.0
 0001161,-0.00000788,-0.00002993,-0.00003698,-0.00066694,0.00003065,-0.
 00000449,-0.00007165,0.00007775,-0.00050031,0.00052602,0.00000073,-0.0
 0000631,0.00000216,0.00000261,0.00000315,0.00000527,-0.00000797,-0.000
 00041,0.00000018,-0.00000877,0.00000292,0.00000398,-0.00005029,0.00000
 276,0.00012698,-0.00002599,0.00004703,0.00005137,0.01140913,0.00066709
 ,-0.00049634,0.13157688,0.01032842,0.04887732\\-0.00000791,0.00000235,
 -0.00000331,-0.00000579,-0.00000224,-0.00000135,-0.00000753,0.00000072
 ,0.00000058,0.00000440,-0.00000172,0.00000368,-0.00000649,-0.00000362,
 0.00000121,0.00000610,-0.00000424,-0.00000085,-0.00000194,-0.00000474,
 0.00000250,0.00000282,0.00000930,0.00000213,0.00001172,0.00000165,0.00
 000384,-0.00000748,0.00000909,-0.00000255,0.00001448,-0.00001055,-0.00
 000077,-0.00001527,-0.00000641,-0.00000049,0.00000504,-0.00000046,0.00
 000016,0.00000246,-0.00000100,-0.00000193,0.00000347,-0.00000047,0.000
 00049,-0.00000130,0.00000242,-0.00000023,-0.00000005,-0.00000173,0.000
 00044,0.00000060,0.00000014,0.00000058,0.00000428,-0.00000288,-0.00000
 142,-0.00000099,-0.00000053,-0.00000073,-0.00000003,0.00000105,-0.0000
 0116,-0.00000144,-0.00000023,0.00000189,0.00000064,-0.00000024,-0.0000
 0058,0.00000130,0.00000137,0.00000101,-0.00000464,0.00000081,-0.000004
 80,0.00000206,0.00000493,-0.00000121,-0.00000184,0.00000421,-0.0000005
 4,0.00000334,0.00000303,0.00000343\\\@
 The archive entry for this job was punched.


 THE ... SCIENTISTS WERE WRONG ... THE MOST PERSISTENT PRINCIPLES 
 OF THE UNIVERSE WERE ACCIDENT AND ERROR.

                          -- FRANK HERBERT IN DUNE
 Job cpu time:       0 days  5 hours 58 minutes 11.6 seconds.
 Elapsed time:       0 days  0 hours 13 minutes 57.0 seconds.
 File lengths (MBytes):  RWF=    539 Int=      0 D2E=      0 Chk=     19 Scr=      1
 Normal termination of Gaussian 16 at Wed Dec  6 07:17:54 2023.
