 Entering Gaussian System, Link 0=g16
 Input=/home/exlonk/in_progress/3525.inp
 Output=/home/exlonk/in_progress/3525.log
 Initial command:
 /opt/gaussian/g16-c01/g16/l1.exe "/lustre/tmp/slurm/2183022/Gau-851741.inp" -scrdir="/lustre/tmp/slurm/2183022/"
 Default CPUs for threads: 0-4,7-9,13-15,19-20,24-28,31-32,36-38,42-44
 Default is to use a total of  26 processors:
                               26 via shared-memory
                                1 via Linda
 Entering Link 1 = /opt/gaussian/g16-c01/g16/l1.exe PID=    851742.
  
 Copyright (c) 1988-2019, Gaussian, Inc.  All Rights Reserved.
  
 This is part of the Gaussian(R) 16 program.  It is based on
 the Gaussian(R) 09 system (copyright 2009, Gaussian, Inc.),
 the Gaussian(R) 03 system (copyright 2003, Gaussian, Inc.),
 the Gaussian(R) 98 system (copyright 1998, Gaussian, Inc.),
 the Gaussian(R) 94 system (copyright 1995, Gaussian, Inc.),
 the Gaussian 92(TM) system (copyright 1992, Gaussian, Inc.),
 the Gaussian 90(TM) system (copyright 1990, Gaussian, Inc.),
 the Gaussian 88(TM) system (copyright 1988, Gaussian, Inc.),
 the Gaussian 86(TM) system (copyright 1986, Carnegie Mellon
 University), and the Gaussian 82(TM) system (copyright 1983,
 Carnegie Mellon University). Gaussian is a federally registered
 trademark of Gaussian, Inc.
  
 This software contains proprietary and confidential information,
 including trade secrets, belonging to Gaussian, Inc.
  
 This software is provided under written license and may be
 used, copied, transmitted, or stored only in accord with that
 written license.
  
 The following legend is applicable only to US Government
 contracts under FAR:
  
                    RESTRICTED RIGHTS LEGEND
  
 Use, reproduction and disclosure by the US Government is
 subject to restrictions as set forth in subparagraphs (a)
 and (c) of the Commercial Computer Software - Restricted
 Rights clause in FAR 52.227-19.
  
 Gaussian, Inc.
 340 Quinnipiac St., Bldg. 40, Wallingford CT 06492
  
  
 ---------------------------------------------------------------
 Warning -- This program may not be used in any manner that
 competes with the business of Gaussian, Inc. or will provide
 assistance to any competitor of Gaussian, Inc.  The licensee
 of this program is prohibited from giving any competitor of
 Gaussian, Inc. access to this program.  By using this program,
 the user acknowledges that Gaussian, Inc. is engaged in the
 business of creating and licensing software in the field of
 computational chemistry and represents and warrants to the
 licensee that it is not a competitor of Gaussian, Inc. and that
 it will not use this program in any manner prohibited above.
 ---------------------------------------------------------------
  

 Cite this work as:
 Gaussian 16, Revision C.01,
 M. J. Frisch, G. W. Trucks, H. B. Schlegel, G. E. Scuseria, 
 M. A. Robb, J. R. Cheeseman, G. Scalmani, V. Barone, 
 G. A. Petersson, H. Nakatsuji, X. Li, M. Caricato, A. V. Marenich, 
 J. Bloino, B. G. Janesko, R. Gomperts, B. Mennucci, H. P. Hratchian, 
 J. V. Ortiz, A. F. Izmaylov, J. L. Sonnenberg, D. Williams-Young, 
 F. Ding, F. Lipparini, F. Egidi, J. Goings, B. Peng, A. Petrone, 
 T. Henderson, D. Ranasinghe, V. G. Zakrzewski, J. Gao, N. Rega, 
 G. Zheng, W. Liang, M. Hada, M. Ehara, K. Toyota, R. Fukuda, 
 J. Hasegawa, M. Ishida, T. Nakajima, Y. Honda, O. Kitao, H. Nakai, 
 T. Vreven, K. Throssell, J. A. Montgomery, Jr., J. E. Peralta, 
 F. Ogliaro, M. J. Bearpark, J. J. Heyd, E. N. Brothers, K. N. Kudin, 
 V. N. Staroverov, T. A. Keith, R. Kobayashi, J. Normand, 
 K. Raghavachari, A. P. Rendell, J. C. Burant, S. S. Iyengar, 
 J. Tomasi, M. Cossi, J. M. Millam, M. Klene, C. Adamo, R. Cammi, 
 J. W. Ochterski, R. L. Martin, K. Morokuma, O. Farkas, 
 J. B. Foresman, and D. J. Fox, Gaussian, Inc., Wallingford CT, 2019.
 
 ******************************************
 Gaussian 16:  EM64L-G16RevC.01  3-Jul-2019
                 5-Dec-2023 
 ******************************************
 %nproc=26
 Will use up to   26 processors via shared memory.
 %mem=16GB
 %chk=/home/exlonk/in_progress/3525.chk
 ------------------------------
 #p MN15/6-311++G(d,p) opt freq
 ------------------------------
 1/18=20,19=15,26=3,38=1/1,3;
 2/9=110,12=2,17=6,18=5,40=1/2;
 3/5=4,6=6,7=1111,11=2,25=1,30=1,71=1,74=-73/1,2,3;
 4//1;
 5/5=2,38=5/2;
 6/7=2,8=2,9=2,10=2,28=1/1;
 7//1,2,3,16;
 1/18=20,19=15,26=3/3(2);
 2/9=110/2;
 99//99;
 2/9=110/2;
 3/5=4,6=6,7=1111,11=2,25=1,30=1,71=1,74=-73/1,2,3;
 4/5=5,16=3,69=1/1;
 5/5=2,38=5/2;
 7//1,2,3,16;
 1/18=20,19=15,26=3/3(-5);
 2/9=110/2;
 6/7=2,8=2,9=2,10=2,19=2,28=1/1;
 99/9=1/99;
 Leave Link    1 at Tue Dec  5 18:16:21 2023, MaxMem=  2147483648 cpu:              14.7 elap:               0.6
 (Enter /opt/gaussian/g16-c01/g16/l101.exe)
 ---------------
 name file: 3525
 ---------------
 Symbolic Z-matrix:
 Charge =  0 Multiplicity = 1
 C                    -2.84475   7.6953    0.68877 
 C                    -2.33451   6.29954   0.56907 
 C                    -1.32479   6.01643  -0.31449 
 C                    -0.85282   4.73212  -0.42778 
 C                    -1.41805   3.74729   0.36504 
 C                    -0.89683   2.3971    0.25642 
 C                     0.41435   2.2287    0.32243 
 C                     1.52122   3.17447   0.49487 
 C                     2.62217   2.43181   0.47606 
 C                     2.24522   1.04582   0.29807 
 C                     3.1653   -0.10754   0.21807 
 C                     4.47581   0.04411   0.30548 
 C                     5.39039  -1.0809    0.22761 
 C                     5.01234  -2.38778   0.06811 
 C                     5.97785  -3.39416  -0.00556 
 C                     7.3074   -3.07687   0.0823 
 C                     7.72534  -1.75162   0.24554 
 C                     6.75841  -0.78539   0.3142 
 N                     0.94574   0.91518   0.20619 
 B                     0.06586  -0.32177   0.01316 
 F                     0.44306  -0.89861  -1.28013 
 F                     0.3358   -1.31435   1.04688 
 N                    -1.40874   0.05525  -0.05036 
 C                    -2.4507   -0.79206  -0.22867 
 C                    -2.39887  -2.23893  -0.40331 
 C                    -3.42677  -3.02974  -0.57202 
 C                    -3.33322  -4.47072  -0.74372 
 C                    -2.16148  -5.17722  -0.75203 
 C                    -2.14509  -6.54556  -0.9237 
 C                    -3.32561  -7.24336  -1.09449 
 C                    -4.50108  -6.56112  -1.09 
 C                    -4.49249  -5.19365  -0.91598 
 C                    -3.58379  -0.01441  -0.21882 
 C                    -3.23658   1.30559  -0.03521 
 C                    -1.86032   1.31091   0.06639 
 C                    -2.43295   4.00528   1.26049 
 C                    -2.88462   5.31021   1.34873 
 H                    -3.68943   7.84124  -0.02458 
 H                    -3.24624   7.8373    1.71662 
 H                    -2.0628    8.43844   0.49868 
 H                    -0.86201   6.76773  -0.95179 
 H                    -0.06835   4.50555  -1.12855 
 H                     1.4867    4.24865   0.61869 
 H                     3.64273   2.81471   0.57979 
 H                     2.77655  -1.0851    0.08776 
 H                     4.87556   1.05474   0.44197 
 H                     3.96912  -2.6298    0.00002 
 H                     5.65017  -4.40132  -0.13103 
 H                     8.06143  -3.85104   0.02511 
 H                     8.78124  -1.53532   0.31124 
 H                     7.08451   0.23538   0.43904 
 H                    -1.42537  -2.7045   -0.39364 
 H                    -4.39874  -2.55547  -0.57846 
 H                    -1.2128   -4.68696  -0.62405 
 H                    -1.23023  -7.11407  -0.93171 
 H                    -3.31494  -8.30862  -1.23087 
 H                    -5.43523  -7.0869   -1.22401 
 H                    -5.45392  -4.69116  -0.91664 
 H                    -4.59108  -0.36829  -0.33459 
 H                    -3.8897    2.17365   0.01628 
 H                    -2.86859   3.23757   1.88315 
 H                    -3.67086   5.53425   2.03393 
 
 ITRead=  0  0  0  0  0  0  0  0  0  0  0  0  0  0  0  0  0  0  0  0
 ITRead=  0  0  0  0  0  0  0  0  0  0  0  0  0  0  0  0  0  0  0  0
 ITRead=  0  0  0  0  0  0  0  0  0  0  0  0  0  0  0  0  0  0  0  0
 ITRead=  0  0
 MicOpt= -1 -1 -1 -1 -1 -1 -1 -1 -1 -1 -1 -1 -1 -1 -1 -1 -1 -1 -1 -1
 MicOpt= -1 -1 -1 -1 -1 -1 -1 -1 -1 -1 -1 -1 -1 -1 -1 -1 -1 -1 -1 -1
 MicOpt= -1 -1 -1 -1 -1 -1 -1 -1 -1 -1 -1 -1 -1 -1 -1 -1 -1 -1 -1 -1
 MicOpt= -1 -1
 NAtoms=     62 NQM=       62 NQMF=       0 NMMI=      0 NMMIF=      0
                NMic=       0 NMicF=      0.
                    Isotopes and Nuclear Properties:
 (Nuclear quadrupole moments (NQMom) in fm**2, nuclear magnetic moments (NMagM)
  in nuclear magnetons)

  Atom         1           2           3           4           5           6           7           8           9          10
 IAtWgt=          12          12          12          12          12          12          12          12          12          12
 AtmWgt=  12.0000000  12.0000000  12.0000000  12.0000000  12.0000000  12.0000000  12.0000000  12.0000000  12.0000000  12.0000000
 NucSpn=           0           0           0           0           0           0           0           0           0           0
 AtZEff=  -0.0000000  -0.0000000  -0.0000000  -0.0000000  -0.0000000  -0.0000000  -0.0000000  -0.0000000  -0.0000000  -0.0000000
 NQMom=    0.0000000   0.0000000   0.0000000   0.0000000   0.0000000   0.0000000   0.0000000   0.0000000   0.0000000   0.0000000
 NMagM=    0.0000000   0.0000000   0.0000000   0.0000000   0.0000000   0.0000000   0.0000000   0.0000000   0.0000000   0.0000000
 AtZNuc=   6.0000000   6.0000000   6.0000000   6.0000000   6.0000000   6.0000000   6.0000000   6.0000000   6.0000000   6.0000000

  Atom        11          12          13          14          15          16          17          18          19          20
 IAtWgt=          12          12          12          12          12          12          12          12          14          11
 AtmWgt=  12.0000000  12.0000000  12.0000000  12.0000000  12.0000000  12.0000000  12.0000000  12.0000000  14.0030740  11.0093053
 NucSpn=           0           0           0           0           0           0           0           0           2           3
 AtZEff=  -0.0000000  -0.0000000  -0.0000000  -0.0000000  -0.0000000  -0.0000000  -0.0000000  -0.0000000  -0.0000000  -0.0000000
 NQMom=    0.0000000   0.0000000   0.0000000   0.0000000   0.0000000   0.0000000   0.0000000   0.0000000   2.0440000   4.0590000
 NMagM=    0.0000000   0.0000000   0.0000000   0.0000000   0.0000000   0.0000000   0.0000000   0.0000000   0.4037610   2.6886370
 AtZNuc=   6.0000000   6.0000000   6.0000000   6.0000000   6.0000000   6.0000000   6.0000000   6.0000000   7.0000000   5.0000000

  Atom        21          22          23          24          25          26          27          28          29          30
 IAtWgt=          19          19          14          12          12          12          12          12          12          12
 AtmWgt=  18.9984033  18.9984033  14.0030740  12.0000000  12.0000000  12.0000000  12.0000000  12.0000000  12.0000000  12.0000000
 NucSpn=           1           1           2           0           0           0           0           0           0           0
 AtZEff=  -0.0000000  -0.0000000  -0.0000000  -0.0000000  -0.0000000  -0.0000000  -0.0000000  -0.0000000  -0.0000000  -0.0000000
 NQMom=    0.0000000   0.0000000   2.0440000   0.0000000   0.0000000   0.0000000   0.0000000   0.0000000   0.0000000   0.0000000
 NMagM=    2.6288670   2.6288670   0.4037610   0.0000000   0.0000000   0.0000000   0.0000000   0.0000000   0.0000000   0.0000000
 AtZNuc=   9.0000000   9.0000000   7.0000000   6.0000000   6.0000000   6.0000000   6.0000000   6.0000000   6.0000000   6.0000000

  Atom        31          32          33          34          35          36          37          38          39          40
 IAtWgt=          12          12          12          12          12          12          12           1           1           1
 AtmWgt=  12.0000000  12.0000000  12.0000000  12.0000000  12.0000000  12.0000000  12.0000000   1.0078250   1.0078250   1.0078250
 NucSpn=           0           0           0           0           0           0           0           1           1           1
 AtZEff=  -0.0000000  -0.0000000  -0.0000000  -0.0000000  -0.0000000  -0.0000000  -0.0000000  -0.0000000  -0.0000000  -0.0000000
 NQMom=    0.0000000   0.0000000   0.0000000   0.0000000   0.0000000   0.0000000   0.0000000   0.0000000   0.0000000   0.0000000
 NMagM=    0.0000000   0.0000000   0.0000000   0.0000000   0.0000000   0.0000000   0.0000000   2.7928460   2.7928460   2.7928460
 AtZNuc=   6.0000000   6.0000000   6.0000000   6.0000000   6.0000000   6.0000000   6.0000000   1.0000000   1.0000000   1.0000000

  Atom        41          42          43          44          45          46          47          48          49          50
 IAtWgt=           1           1           1           1           1           1           1           1           1           1
 AtmWgt=   1.0078250   1.0078250   1.0078250   1.0078250   1.0078250   1.0078250   1.0078250   1.0078250   1.0078250   1.0078250
 NucSpn=           1           1           1           1           1           1           1           1           1           1
 AtZEff=  -0.0000000  -0.0000000  -0.0000000  -0.0000000  -0.0000000  -0.0000000  -0.0000000  -0.0000000  -0.0000000  -0.0000000
 NQMom=    0.0000000   0.0000000   0.0000000   0.0000000   0.0000000   0.0000000   0.0000000   0.0000000   0.0000000   0.0000000
 NMagM=    2.7928460   2.7928460   2.7928460   2.7928460   2.7928460   2.7928460   2.7928460   2.7928460   2.7928460   2.7928460
 AtZNuc=   1.0000000   1.0000000   1.0000000   1.0000000   1.0000000   1.0000000   1.0000000   1.0000000   1.0000000   1.0000000

  Atom        51          52          53          54          55          56          57          58          59          60
 IAtWgt=           1           1           1           1           1           1           1           1           1           1
 AtmWgt=   1.0078250   1.0078250   1.0078250   1.0078250   1.0078250   1.0078250   1.0078250   1.0078250   1.0078250   1.0078250
 NucSpn=           1           1           1           1           1           1           1           1           1           1
 AtZEff=  -0.0000000  -0.0000000  -0.0000000  -0.0000000  -0.0000000  -0.0000000  -0.0000000  -0.0000000  -0.0000000  -0.0000000
 NQMom=    0.0000000   0.0000000   0.0000000   0.0000000   0.0000000   0.0000000   0.0000000   0.0000000   0.0000000   0.0000000
 NMagM=    2.7928460   2.7928460   2.7928460   2.7928460   2.7928460   2.7928460   2.7928460   2.7928460   2.7928460   2.7928460
 AtZNuc=   1.0000000   1.0000000   1.0000000   1.0000000   1.0000000   1.0000000   1.0000000   1.0000000   1.0000000   1.0000000

  Atom        61          62
 IAtWgt=           1           1
 AtmWgt=   1.0078250   1.0078250
 NucSpn=           1           1
 AtZEff=  -0.0000000  -0.0000000
 NQMom=    0.0000000   0.0000000
 NMagM=    2.7928460   2.7928460
 AtZNuc=   1.0000000   1.0000000
 Leave Link  101 at Tue Dec  5 18:16:21 2023, MaxMem=  2147483648 cpu:               9.7 elap:               0.5
 (Enter /opt/gaussian/g16-c01/g16/l103.exe)

 GradGradGradGradGradGradGradGradGradGradGradGradGradGradGradGradGradGrad
 Berny optimization.
 Initialization pass.
                           ----------------------------
                           !    Initial Parameters    !
                           ! (Angstroms and Degrees)  !
 --------------------------                            --------------------------
 ! Name  Definition              Value          Derivative Info.                !
 --------------------------------------------------------------------------------
 ! R1    R(1,2)                  1.4909         estimate D2E/DX2                !
 ! R2    R(1,38)                 1.1152         estimate D2E/DX2                !
 ! R3    R(1,39)                 1.1126         estimate D2E/DX2                !
 ! R4    R(1,40)                 1.0954         estimate D2E/DX2                !
 ! R5    R(2,3)                  1.3713         estimate D2E/DX2                !
 ! R6    R(2,37)                 1.3745         estimate D2E/DX2                !
 ! R7    R(3,4)                  1.373          estimate D2E/DX2                !
 ! R8    R(3,41)                 1.0885         estimate D2E/DX2                !
 ! R9    R(4,5)                  1.3849         estimate D2E/DX2                !
 ! R10   R(4,42)                 1.076          estimate D2E/DX2                !
 ! R11   R(5,6)                  1.4514         estimate D2E/DX2                !
 ! R12   R(5,36)                 1.3778         estimate D2E/DX2                !
 ! R13   R(6,7)                  1.3236         estimate D2E/DX2                !
 ! R14   R(6,35)                 1.4643         estimate D2E/DX2                !
 ! R15   R(7,8)                  1.4661         estimate D2E/DX2                !
 ! R16   R(7,19)                 1.4217         estimate D2E/DX2                !
 ! R17   R(8,9)                  1.3282         estimate D2E/DX2                !
 ! R18   R(8,43)                 1.0818         estimate D2E/DX2                !
 ! R19   R(9,10)                 1.4473         estimate D2E/DX2                !
 ! R20   R(9,44)                 1.095          estimate D2E/DX2                !
 ! R21   R(10,11)                1.4776         estimate D2E/DX2                !
 ! R22   R(10,19)                1.3093         estimate D2E/DX2                !
 ! R23   R(11,12)                1.3221         estimate D2E/DX2                !
 ! R24   R(11,45)                1.0601         estimate D2E/DX2                !
 ! R25   R(12,13)                1.452          estimate D2E/DX2                !
 ! R26   R(12,46)                1.0954         estimate D2E/DX2                !
 ! R27   R(13,14)                1.3698         estimate D2E/DX2                !
 ! R28   R(13,18)                1.4023         estimate D2E/DX2                !
 ! R29   R(14,15)                1.3966         estimate D2E/DX2                !
 ! R30   R(14,47)                1.0731         estimate D2E/DX2                !
 ! R31   R(15,16)                1.3697         estimate D2E/DX2                !
 ! R32   R(15,48)                1.0665         estimate D2E/DX2                !
 ! R33   R(16,17)                1.3992         estimate D2E/DX2                !
 ! R34   R(16,49)                1.0822         estimate D2E/DX2                !
 ! R35   R(17,18)                1.3687         estimate D2E/DX2                !
 ! R36   R(17,50)                1.0798         estimate D2E/DX2                !
 ! R37   R(18,51)                1.0788         estimate D2E/DX2                !
 ! R38   R(19,20)                1.5302         estimate D2E/DX2                !
 ! R39   R(20,21)                1.4655         estimate D2E/DX2                !
 ! R40   R(20,22)                1.4583         estimate D2E/DX2                !
 ! R41   R(20,23)                1.5234         estimate D2E/DX2                !
 ! R42   R(23,24)                1.3548         estimate D2E/DX2                !
 ! R43   R(23,35)                1.3395         estimate D2E/DX2                !
 ! R44   R(24,25)                1.4583         estimate D2E/DX2                !
 ! R45   R(24,33)                1.3743         estimate D2E/DX2                !
 ! R46   R(25,26)                1.3078         estimate D2E/DX2                !
 ! R47   R(25,52)                1.0791         estimate D2E/DX2                !
 ! R48   R(26,27)                1.4542         estimate D2E/DX2                !
 ! R49   R(26,53)                1.0815         estimate D2E/DX2                !
 ! R50   R(27,28)                1.3683         estimate D2E/DX2                !
 ! R51   R(27,32)                1.377          estimate D2E/DX2                !
 ! R52   R(28,29)                1.3792         estimate D2E/DX2                !
 ! R53   R(28,54)                1.0755         estimate D2E/DX2                !
 ! R54   R(29,30)                1.3819         estimate D2E/DX2                !
 ! R55   R(29,55)                1.0771         estimate D2E/DX2                !
 ! R56   R(30,31)                1.3591         estimate D2E/DX2                !
 ! R57   R(30,56)                1.074          estimate D2E/DX2                !
 ! R58   R(31,32)                1.3785         estimate D2E/DX2                !
 ! R59   R(31,57)                1.0803         estimate D2E/DX2                !
 ! R60   R(32,58)                1.0848         estimate D2E/DX2                !
 ! R61   R(33,34)                1.3772         estimate D2E/DX2                !
 ! R62   R(33,59)                1.0739         estimate D2E/DX2                !
 ! R63   R(34,35)                1.38           estimate D2E/DX2                !
 ! R64   R(34,60)                1.0875         estimate D2E/DX2                !
 ! R65   R(36,37)                1.3837         estimate D2E/DX2                !
 ! R66   R(36,61)                1.0802         estimate D2E/DX2                !
 ! R67   R(37,62)                1.0667         estimate D2E/DX2                !
 ! A1    A(2,1,38)             109.2918         estimate D2E/DX2                !
 ! A2    A(2,1,39)             108.4909         estimate D2E/DX2                !
 ! A3    A(2,1,40)             112.1414         estimate D2E/DX2                !
 ! A4    A(38,1,39)            107.5131         estimate D2E/DX2                !
 ! A5    A(38,1,40)            109.9323         estimate D2E/DX2                !
 ! A6    A(39,1,40)            109.3504         estimate D2E/DX2                !
 ! A7    A(1,2,3)              119.8024         estimate D2E/DX2                !
 ! A8    A(1,2,37)             119.4274         estimate D2E/DX2                !
 ! A9    A(3,2,37)             120.7702         estimate D2E/DX2                !
 ! A10   A(2,3,4)              119.9613         estimate D2E/DX2                !
 ! A11   A(2,3,41)             123.2183         estimate D2E/DX2                !
 ! A12   A(4,3,41)             116.8203         estimate D2E/DX2                !
 ! A13   A(3,4,5)              118.5331         estimate D2E/DX2                !
 ! A14   A(3,4,42)             120.088          estimate D2E/DX2                !
 ! A15   A(5,4,42)             121.3754         estimate D2E/DX2                !
 ! A16   A(4,5,6)              118.173          estimate D2E/DX2                !
 ! A17   A(4,5,36)             122.6519         estimate D2E/DX2                !
 ! A18   A(6,5,36)             119.1665         estimate D2E/DX2                !
 ! A19   A(5,6,7)              118.059          estimate D2E/DX2                !
 ! A20   A(5,6,35)             117.6118         estimate D2E/DX2                !
 ! A21   A(7,6,35)             124.3259         estimate D2E/DX2                !
 ! A22   A(6,7,8)              132.198          estimate D2E/DX2                !
 ! A23   A(6,7,19)             118.9297         estimate D2E/DX2                !
 ! A24   A(8,7,19)             108.8713         estimate D2E/DX2                !
 ! A25   A(7,8,9)              105.2747         estimate D2E/DX2                !
 ! A26   A(7,8,43)             129.0435         estimate D2E/DX2                !
 ! A27   A(9,8,43)             125.6811         estimate D2E/DX2                !
 ! A28   A(8,9,10)             108.7432         estimate D2E/DX2                !
 ! A29   A(8,9,44)             125.1513         estimate D2E/DX2                !
 ! A30   A(10,9,44)            126.1055         estimate D2E/DX2                !
 ! A31   A(9,10,11)            126.2983         estimate D2E/DX2                !
 ! A32   A(9,10,19)            111.2652         estimate D2E/DX2                !
 ! A33   A(11,10,19)           122.436          estimate D2E/DX2                !
 ! A34   A(10,11,12)           121.608          estimate D2E/DX2                !
 ! A35   A(10,11,45)           119.8762         estimate D2E/DX2                !
 ! A36   A(12,11,45)           118.5158         estimate D2E/DX2                !
 ! A37   A(11,12,13)           122.136          estimate D2E/DX2                !
 ! A38   A(11,12,46)           118.4115         estimate D2E/DX2                !
 ! A39   A(13,12,46)           119.4525         estimate D2E/DX2                !
 ! A40   A(12,13,14)           124.8651         estimate D2E/DX2                !
 ! A41   A(12,13,18)           116.61           estimate D2E/DX2                !
 ! A42   A(14,13,18)           118.523          estimate D2E/DX2                !
 ! A43   A(13,14,15)           120.1888         estimate D2E/DX2                !
 ! A44   A(13,14,47)           119.3985         estimate D2E/DX2                !
 ! A45   A(15,14,47)           120.4127         estimate D2E/DX2                !
 ! A46   A(14,15,16)           120.0507         estimate D2E/DX2                !
 ! A47   A(14,15,48)           118.313          estimate D2E/DX2                !
 ! A48   A(16,15,48)           121.6362         estimate D2E/DX2                !
 ! A49   A(15,16,17)           121.1208         estimate D2E/DX2                !
 ! A50   A(15,16,49)           120.4797         estimate D2E/DX2                !
 ! A51   A(17,16,49)           118.3995         estimate D2E/DX2                !
 ! A52   A(16,17,18)           117.6132         estimate D2E/DX2                !
 ! A53   A(16,17,50)           119.2693         estimate D2E/DX2                !
 ! A54   A(18,17,50)           123.1175         estimate D2E/DX2                !
 ! A55   A(13,18,17)           122.5035         estimate D2E/DX2                !
 ! A56   A(13,18,51)           120.0954         estimate D2E/DX2                !
 ! A57   A(17,18,51)           117.4011         estimate D2E/DX2                !
 ! A58   A(7,19,10)            105.8456         estimate D2E/DX2                !
 ! A59   A(7,19,20)            122.8364         estimate D2E/DX2                !
 ! A60   A(10,19,20)           131.3179         estimate D2E/DX2                !
 ! A61   A(19,20,21)           106.3496         estimate D2E/DX2                !
 ! A62   A(19,20,22)           110.7534         estimate D2E/DX2                !
 ! A63   A(19,20,23)           111.2112         estimate D2E/DX2                !
 ! A64   A(21,20,22)           108.0596         estimate D2E/DX2                !
 ! A65   A(21,20,23)           108.0456         estimate D2E/DX2                !
 ! A66   A(22,20,23)           112.1599         estimate D2E/DX2                !
 ! A67   A(20,23,24)           126.526          estimate D2E/DX2                !
 ! A68   A(20,23,35)           123.6904         estimate D2E/DX2                !
 ! A69   A(24,23,35)           109.7836         estimate D2E/DX2                !
 ! A70   A(23,24,25)           127.5138         estimate D2E/DX2                !
 ! A71   A(23,24,33)           106.2169         estimate D2E/DX2                !
 ! A72   A(25,24,33)           126.2688         estimate D2E/DX2                !
 ! A73   A(24,25,26)           125.9762         estimate D2E/DX2                !
 ! A74   A(24,25,52)           117.3249         estimate D2E/DX2                !
 ! A75   A(26,25,52)           116.6989         estimate D2E/DX2                !
 ! A76   A(25,26,27)           124.3224         estimate D2E/DX2                !
 ! A77   A(25,26,53)           116.2287         estimate D2E/DX2                !
 ! A78   A(27,26,53)           119.4489         estimate D2E/DX2                !
 ! A79   A(26,27,28)           124.5735         estimate D2E/DX2                !
 ! A80   A(26,27,32)           118.7402         estimate D2E/DX2                !
 ! A81   A(28,27,32)           116.6859         estimate D2E/DX2                !
 ! A82   A(27,28,29)           121.5486         estimate D2E/DX2                !
 ! A83   A(27,28,54)           121.2839         estimate D2E/DX2                !
 ! A84   A(29,28,54)           117.1675         estimate D2E/DX2                !
 ! A85   A(28,29,30)           120.4122         estimate D2E/DX2                !
 ! A86   A(28,29,55)           122.3213         estimate D2E/DX2                !
 ! A87   A(30,29,55)           117.2666         estimate D2E/DX2                !
 ! A88   A(29,30,31)           119.009          estimate D2E/DX2                !
 ! A89   A(29,30,56)           120.5329         estimate D2E/DX2                !
 ! A90   A(31,30,56)           120.4579         estimate D2E/DX2                !
 ! A91   A(30,31,32)           119.5364         estimate D2E/DX2                !
 ! A92   A(30,31,57)           120.2082         estimate D2E/DX2                !
 ! A93   A(32,31,57)           120.2553         estimate D2E/DX2                !
 ! A94   A(27,32,31)           122.8079         estimate D2E/DX2                !
 ! A95   A(27,32,58)           120.1985         estimate D2E/DX2                !
 ! A96   A(31,32,58)           116.9934         estimate D2E/DX2                !
 ! A97   A(24,33,34)           109.5995         estimate D2E/DX2                !
 ! A98   A(24,33,59)           125.8814         estimate D2E/DX2                !
 ! A99   A(34,33,59)           124.5191         estimate D2E/DX2                !
 ! A100  A(33,34,35)           105.363          estimate D2E/DX2                !
 ! A101  A(33,34,60)           128.3129         estimate D2E/DX2                !
 ! A102  A(35,34,60)           126.3234         estimate D2E/DX2                !
 ! A103  A(6,35,23)            119.0019         estimate D2E/DX2                !
 ! A104  A(6,35,34)            131.9591         estimate D2E/DX2                !
 ! A105  A(23,35,34)           109.037          estimate D2E/DX2                !
 ! A106  A(5,36,37)            117.2882         estimate D2E/DX2                !
 ! A107  A(5,36,61)            122.5889         estimate D2E/DX2                !
 ! A108  A(37,36,61)           120.1216         estimate D2E/DX2                !
 ! A109  A(2,37,36)            120.7954         estimate D2E/DX2                !
 ! A110  A(2,37,62)            120.5431         estimate D2E/DX2                !
 ! A111  A(36,37,62)           118.6614         estimate D2E/DX2                !
 ! D1    D(38,1,2,3)            90.586          estimate D2E/DX2                !
 ! D2    D(38,1,2,37)          -89.4122         estimate D2E/DX2                !
 ! D3    D(39,1,2,3)          -152.4622         estimate D2E/DX2                !
 ! D4    D(39,1,2,37)           27.5396         estimate D2E/DX2                !
 ! D5    D(40,1,2,3)           -31.5801         estimate D2E/DX2                !
 ! D6    D(40,1,2,37)          148.4217         estimate D2E/DX2                !
 ! D7    D(1,2,3,4)           -179.9724         estimate D2E/DX2                !
 ! D8    D(1,2,3,41)            -0.1119         estimate D2E/DX2                !
 ! D9    D(37,2,3,4)             0.0258         estimate D2E/DX2                !
 ! D10   D(37,2,3,41)          179.8864         estimate D2E/DX2                !
 ! D11   D(1,2,37,36)          179.9867         estimate D2E/DX2                !
 ! D12   D(1,2,37,62)            0.0811         estimate D2E/DX2                !
 ! D13   D(3,2,37,36)           -0.0115         estimate D2E/DX2                !
 ! D14   D(3,2,37,62)         -179.9172         estimate D2E/DX2                !
 ! D15   D(2,3,4,5)             -0.0251         estimate D2E/DX2                !
 ! D16   D(2,3,4,42)           179.2963         estimate D2E/DX2                !
 ! D17   D(41,3,4,5)          -179.8944         estimate D2E/DX2                !
 ! D18   D(41,3,4,42)           -0.573          estimate D2E/DX2                !
 ! D19   D(3,4,5,6)           -178.907          estimate D2E/DX2                !
 ! D20   D(3,4,5,36)             0.0109         estimate D2E/DX2                !
 ! D21   D(42,4,5,6)             1.7807         estimate D2E/DX2                !
 ! D22   D(42,4,5,36)         -179.3013         estimate D2E/DX2                !
 ! D23   D(4,5,6,7)             49.2912         estimate D2E/DX2                !
 ! D24   D(4,5,6,35)          -130.0787         estimate D2E/DX2                !
 ! D25   D(36,5,6,7)          -129.6655         estimate D2E/DX2                !
 ! D26   D(36,5,6,35)           50.9646         estimate D2E/DX2                !
 ! D27   D(4,5,36,37)            0.003          estimate D2E/DX2                !
 ! D28   D(4,5,36,61)         -179.5801         estimate D2E/DX2                !
 ! D29   D(6,5,36,37)          178.9106         estimate D2E/DX2                !
 ! D30   D(6,5,36,61)           -0.6724         estimate D2E/DX2                !
 ! D31   D(5,6,7,8)              0.1254         estimate D2E/DX2                !
 ! D32   D(5,6,7,19)          -179.4458         estimate D2E/DX2                !
 ! D33   D(35,6,7,8)           179.4493         estimate D2E/DX2                !
 ! D34   D(35,6,7,19)           -0.1219         estimate D2E/DX2                !
 ! D35   D(5,6,35,23)          179.356          estimate D2E/DX2                !
 ! D36   D(5,6,35,34)           -0.0634         estimate D2E/DX2                !
 ! D37   D(7,6,35,23)            0.0293         estimate D2E/DX2                !
 ! D38   D(7,6,35,34)         -179.3901         estimate D2E/DX2                !
 ! D39   D(6,7,8,9)           -179.5688         estimate D2E/DX2                !
 ! D40   D(6,7,8,43)             0.7299         estimate D2E/DX2                !
 ! D41   D(19,7,8,9)             0.0346         estimate D2E/DX2                !
 ! D42   D(19,7,8,43)         -179.6667         estimate D2E/DX2                !
 ! D43   D(6,7,19,10)          179.653          estimate D2E/DX2                !
 ! D44   D(6,7,19,20)           -0.2773         estimate D2E/DX2                !
 ! D45   D(8,7,19,10)           -0.0113         estimate D2E/DX2                !
 ! D46   D(8,7,19,20)         -179.9416         estimate D2E/DX2                !
 ! D47   D(7,8,9,10)            -0.0424         estimate D2E/DX2                !
 ! D48   D(7,8,9,44)          -179.998          estimate D2E/DX2                !
 ! D49   D(43,8,9,10)          179.672          estimate D2E/DX2                !
 ! D50   D(43,8,9,44)           -0.2836         estimate D2E/DX2                !
 ! D51   D(8,9,10,11)          179.7902         estimate D2E/DX2                !
 ! D52   D(8,9,10,19)            0.0387         estimate D2E/DX2                !
 ! D53   D(44,9,10,11)          -0.2547         estimate D2E/DX2                !
 ! D54   D(44,9,10,19)         179.9938         estimate D2E/DX2                !
 ! D55   D(9,10,11,12)          -0.1078         estimate D2E/DX2                !
 ! D56   D(9,10,11,45)         179.8753         estimate D2E/DX2                !
 ! D57   D(19,10,11,12)        179.6179         estimate D2E/DX2                !
 ! D58   D(19,10,11,45)         -0.3991         estimate D2E/DX2                !
 ! D59   D(9,10,19,7)           -0.015          estimate D2E/DX2                !
 ! D60   D(9,10,19,20)         179.9071         estimate D2E/DX2                !
 ! D61   D(11,10,19,7)        -179.7777         estimate D2E/DX2                !
 ! D62   D(11,10,19,20)          0.1444         estimate D2E/DX2                !
 ! D63   D(10,11,12,13)       -179.9657         estimate D2E/DX2                !
 ! D64   D(10,11,12,46)          0.0951         estimate D2E/DX2                !
 ! D65   D(45,11,12,13)          0.0511         estimate D2E/DX2                !
 ! D66   D(45,11,12,46)       -179.8881         estimate D2E/DX2                !
 ! D67   D(11,12,13,14)         -0.4158         estimate D2E/DX2                !
 ! D68   D(11,12,13,18)        179.0867         estimate D2E/DX2                !
 ! D69   D(46,12,13,14)        179.5228         estimate D2E/DX2                !
 ! D70   D(46,12,13,18)         -0.9748         estimate D2E/DX2                !
 ! D71   D(12,13,14,15)        179.4777         estimate D2E/DX2                !
 ! D72   D(12,13,14,47)         -0.493          estimate D2E/DX2                !
 ! D73   D(18,13,14,15)         -0.016          estimate D2E/DX2                !
 ! D74   D(18,13,14,47)       -179.9867         estimate D2E/DX2                !
 ! D75   D(12,13,18,17)       -179.5437         estimate D2E/DX2                !
 ! D76   D(12,13,18,51)          0.4061         estimate D2E/DX2                !
 ! D77   D(14,13,18,17)         -0.0084         estimate D2E/DX2                !
 ! D78   D(14,13,18,51)        179.9415         estimate D2E/DX2                !
 ! D79   D(13,14,15,16)          0.0341         estimate D2E/DX2                !
 ! D80   D(13,14,15,48)       -179.9316         estimate D2E/DX2                !
 ! D81   D(47,14,15,16)       -179.9956         estimate D2E/DX2                !
 ! D82   D(47,14,15,48)          0.0387         estimate D2E/DX2                !
 ! D83   D(14,15,16,17)         -0.0281         estimate D2E/DX2                !
 ! D84   D(14,15,16,49)       -179.9412         estimate D2E/DX2                !
 ! D85   D(48,15,16,17)        179.9365         estimate D2E/DX2                !
 ! D86   D(48,15,16,49)          0.0234         estimate D2E/DX2                !
 ! D87   D(15,16,17,18)          0.0041         estimate D2E/DX2                !
 ! D88   D(15,16,17,50)       -179.9924         estimate D2E/DX2                !
 ! D89   D(49,16,17,18)        179.919          estimate D2E/DX2                !
 ! D90   D(49,16,17,50)         -0.0775         estimate D2E/DX2                !
 ! D91   D(16,17,18,13)          0.0143         estimate D2E/DX2                !
 ! D92   D(16,17,18,51)       -179.9368         estimate D2E/DX2                !
 ! D93   D(50,17,18,13)       -179.9893         estimate D2E/DX2                !
 ! D94   D(50,17,18,51)          0.0595         estimate D2E/DX2                !
 ! D95   D(7,19,20,21)         118.0705         estimate D2E/DX2                !
 ! D96   D(7,19,20,22)        -124.7582         estimate D2E/DX2                !
 ! D97   D(7,19,20,23)           0.6743         estimate D2E/DX2                !
 ! D98   D(10,19,20,21)        -61.8402         estimate D2E/DX2                !
 ! D99   D(10,19,20,22)         55.3311         estimate D2E/DX2                !
 ! D100  D(10,19,20,23)       -179.2365         estimate D2E/DX2                !
 ! D101  D(19,20,23,24)        179.2039         estimate D2E/DX2                !
 ! D102  D(19,20,23,35)         -0.7763         estimate D2E/DX2                !
 ! D103  D(21,20,23,24)         62.8433         estimate D2E/DX2                !
 ! D104  D(21,20,23,35)       -117.1369         estimate D2E/DX2                !
 ! D105  D(22,20,23,24)        -56.1521         estimate D2E/DX2                !
 ! D106  D(22,20,23,35)        123.8677         estimate D2E/DX2                !
 ! D107  D(20,23,24,25)         -0.2518         estimate D2E/DX2                !
 ! D108  D(20,23,24,33)        179.9911         estimate D2E/DX2                !
 ! D109  D(35,23,24,25)        179.7307         estimate D2E/DX2                !
 ! D110  D(35,23,24,33)         -0.0264         estimate D2E/DX2                !
 ! D111  D(20,23,35,6)           0.4722         estimate D2E/DX2                !
 ! D112  D(20,23,35,34)       -179.9844         estimate D2E/DX2                !
 ! D113  D(24,23,35,6)        -179.5108         estimate D2E/DX2                !
 ! D114  D(24,23,35,34)          0.0325         estimate D2E/DX2                !
 ! D115  D(23,24,25,26)        179.9118         estimate D2E/DX2                !
 ! D116  D(23,24,25,52)         -0.1165         estimate D2E/DX2                !
 ! D117  D(33,24,25,26)         -0.3775         estimate D2E/DX2                !
 ! D118  D(33,24,25,52)        179.5942         estimate D2E/DX2                !
 ! D119  D(23,24,33,34)          0.0106         estimate D2E/DX2                !
 ! D120  D(23,24,33,59)       -179.9474         estimate D2E/DX2                !
 ! D121  D(25,24,33,34)       -179.7504         estimate D2E/DX2                !
 ! D122  D(25,24,33,59)          0.2916         estimate D2E/DX2                !
 ! D123  D(24,25,26,27)        179.9684         estimate D2E/DX2                !
 ! D124  D(24,25,26,53)         -0.1479         estimate D2E/DX2                !
 ! D125  D(52,25,26,27)         -0.0035         estimate D2E/DX2                !
 ! D126  D(52,25,26,53)        179.8802         estimate D2E/DX2                !
 ! D127  D(25,26,27,28)         -0.0919         estimate D2E/DX2                !
 ! D128  D(25,26,27,32)       -179.8644         estimate D2E/DX2                !
 ! D129  D(53,26,27,28)       -179.9721         estimate D2E/DX2                !
 ! D130  D(53,26,27,32)          0.2554         estimate D2E/DX2                !
 ! D131  D(26,27,28,29)       -179.8194         estimate D2E/DX2                !
 ! D132  D(26,27,28,54)          0.2157         estimate D2E/DX2                !
 ! D133  D(32,27,28,29)         -0.0426         estimate D2E/DX2                !
 ! D134  D(32,27,28,54)        179.9925         estimate D2E/DX2                !
 ! D135  D(26,27,32,31)        179.7978         estimate D2E/DX2                !
 ! D136  D(26,27,32,58)         -0.3494         estimate D2E/DX2                !
 ! D137  D(28,27,32,31)          0.0075         estimate D2E/DX2                !
 ! D138  D(28,27,32,58)        179.8602         estimate D2E/DX2                !
 ! D139  D(27,28,29,30)          0.0553         estimate D2E/DX2                !
 ! D140  D(27,28,29,55)       -179.9619         estimate D2E/DX2                !
 ! D141  D(54,28,29,30)       -179.9784         estimate D2E/DX2                !
 ! D142  D(54,28,29,55)          0.0043         estimate D2E/DX2                !
 ! D143  D(28,29,30,31)         -0.0305         estimate D2E/DX2                !
 ! D144  D(28,29,30,56)        179.8416         estimate D2E/DX2                !
 ! D145  D(55,29,30,31)        179.9859         estimate D2E/DX2                !
 ! D146  D(55,29,30,56)         -0.142          estimate D2E/DX2                !
 ! D147  D(29,30,31,32)         -0.0039         estimate D2E/DX2                !
 ! D148  D(29,30,31,57)        179.8661         estimate D2E/DX2                !
 ! D149  D(56,30,31,32)       -179.8761         estimate D2E/DX2                !
 ! D150  D(56,30,31,57)         -0.006          estimate D2E/DX2                !
 ! D151  D(30,31,32,27)          0.0157         estimate D2E/DX2                !
 ! D152  D(30,31,32,58)       -179.8415         estimate D2E/DX2                !
 ! D153  D(57,31,32,27)       -179.8543         estimate D2E/DX2                !
 ! D154  D(57,31,32,58)          0.2885         estimate D2E/DX2                !
 ! D155  D(24,33,34,35)          0.0084         estimate D2E/DX2                !
 ! D156  D(24,33,34,60)        179.7027         estimate D2E/DX2                !
 ! D157  D(59,33,34,35)        179.9671         estimate D2E/DX2                !
 ! D158  D(59,33,34,60)         -0.3386         estimate D2E/DX2                !
 ! D159  D(33,34,35,6)         179.4382         estimate D2E/DX2                !
 ! D160  D(33,34,35,23)         -0.0247         estimate D2E/DX2                !
 ! D161  D(60,34,35,6)          -0.2641         estimate D2E/DX2                !
 ! D162  D(60,34,35,23)       -179.727          estimate D2E/DX2                !
 ! D163  D(5,36,37,2)           -0.0028         estimate D2E/DX2                !
 ! D164  D(5,36,37,62)         179.9046         estimate D2E/DX2                !
 ! D165  D(61,36,37,2)         179.591          estimate D2E/DX2                !
 ! D166  D(61,36,37,62)         -0.5016         estimate D2E/DX2                !
 --------------------------------------------------------------------------------
 Trust Radius=3.00D-01 FncErr=1.00D-07 GrdErr=1.00D-06 EigMax=2.50D+02 EigMin=1.00D-04
 Number of steps in this run=    354 maximum allowed number of steps=    372.
 GradGradGradGradGradGradGradGradGradGradGradGradGradGradGradGradGradGrad

 Leave Link  103 at Tue Dec  5 18:16:21 2023, MaxMem=  2147483648 cpu:               2.8 elap:               0.2
 (Enter /opt/gaussian/g16-c01/g16/l202.exe)
 Stoichiometry    C32H25BF2N2
 Framework group  C1[X(C32H25BF2N2)]
 Deg. of freedom   180
 Full point group                 C1      NOp   1
 Largest Abelian subgroup         C1      NOp   1
 Largest concise Abelian subgroup C1      NOp   1
                         Standard orientation:                         
 ---------------------------------------------------------------------
 Center     Atomic      Atomic             Coordinates (Angstroms)
 Number     Number       Type             X           Y           Z
 ---------------------------------------------------------------------
      1          6           0        8.287908   -0.842429    0.043510
      2          6           0        6.804298   -0.695595    0.030719
      3          6           0        6.194315    0.139672    0.931060
      4          6           0        4.828250    0.276913    0.922551
      5          6           0        4.096977   -0.441878   -0.008312
      6          6           0        2.655631   -0.272524   -0.026255
      7          6           0        2.173686    0.960155   -0.037717
      8          6           0        2.826612    2.272805   -0.038419
      9          6           0        1.835291    3.156689   -0.043365
     10          6           0        0.576068    2.443203   -0.046824
     11          6           0       -0.772011    3.048077   -0.048272
     12          6           0       -0.943279    4.359081   -0.044305
     13          6           0       -2.262459    4.965649   -0.044936
     14          6           0       -3.443376    4.271698   -0.057722
     15          6           0       -4.660487    4.956480   -0.046062
     16          6           0       -4.676834    6.325887   -0.022480
     17          6           0       -3.487763    7.063153   -0.009065
     18          6           0       -2.309472    6.366900   -0.020440
     19          7           0        0.764401    1.147559   -0.043326
     20          5           0       -0.227580   -0.017542   -0.042905
     21          9           0       -1.003220    0.101496    1.194776
     22          9           0       -1.150568    0.089225   -1.166893
     23          7           0        0.496288   -1.357713   -0.019122
     24          6           0       -0.078466   -2.584332    0.002317
     25          6           0       -1.502676   -2.897622    0.012536
     26          6           0       -2.025546   -4.096230    0.031712
     27          6           0       -3.454168   -4.367514    0.042015
     28          6           0       -4.427224   -3.405591    0.034770
     29          6           0       -5.766648   -3.733966    0.049056
     30          6           0       -6.162135   -5.057888    0.072437
     31          6           0       -5.211902   -6.029580    0.080483
     32          6           0       -3.879308   -5.677070    0.065159
     33          6           0        0.953686   -3.491592    0.018357
     34          6           0        2.157262   -2.822317    0.007012
     35          6           0        1.830007   -1.481860   -0.016195
     36          6           0        4.685197   -1.287240   -0.923610
     37          6           0        6.063656   -1.401942   -0.886764
     38          1           0        8.569151   -1.682776    0.720538
     39          1           0        8.624697   -1.111706   -0.982111
     40          1           0        8.791067    0.077291    0.360981
     41          1           0        6.741160    0.715884    1.675171
     42          1           0        4.346561    0.923071    1.635479
     43          1           0        3.882409    2.508752   -0.039992
     44          1           0        1.960568    4.244454   -0.045278
     45          1           0       -1.630063    2.425618   -0.052855
     46          1           0       -0.055488    5.000654   -0.041453
     47          1           0       -3.423790    3.198950   -0.076266
     48          1           0       -5.561787    4.386337   -0.055419
     49          1           0       -5.615972    6.863552   -0.012366
     50          1           0       -3.535529    8.141761    0.009614
     51          1           0       -1.394739    6.938747   -0.008982
     52          1           0       -2.192500   -2.067790    0.003988
     53          1           0       -1.327409   -4.922217    0.038140
     54          1           0       -4.178244   -2.359440    0.017091
     55          1           0       -6.542812   -2.987119    0.042973
     56          1           0       -7.204633   -5.315764    0.086150
     57          1           0       -5.499319   -7.070744    0.100879
     58          1           0       -3.156021   -6.485586    0.069678
     59          1           0        0.851906   -4.560507    0.036290
     60          1           0        3.161239   -3.240213    0.018961
     61          1           0        4.114357   -1.842369   -1.653572
     62          1           0        6.541818   -2.051700   -1.584640
 ---------------------------------------------------------------------
 Rotational constants (GHZ):           0.0847228           0.0723825           0.0396861
 Leave Link  202 at Tue Dec  5 18:16:29 2023, MaxMem=  2147483648 cpu:             166.8 elap:               6.8
 (Enter /opt/gaussian/g16-c01/g16/l301.exe)
 Standard basis: 6-311++G(d,p) (5D, 7F)
 Ernie: Thresh=  0.10000D-02 Tol=  0.10000D-05 Strict=F.
 There are  1026 symmetry adapted cartesian basis functions of A   symmetry.
 There are   989 symmetry adapted basis functions of A   symmetry.
   989 basis functions,  1557 primitive gaussians,  1026 cartesian basis functions
   127 alpha electrons      127 beta electrons
       nuclear repulsion energy      3560.2968614494 Hartrees.
 IExCor= 7252 DFT=T Ex+Corr=MN15 ExCW=0 ScaHFX=  0.440000
 ScaDFX=  1.000000  1.000000  1.000000  1.000000 ScalE2=  1.000000  1.000000
 IRadAn=      5 IRanWt=     -1 IRanGd=            0 ICorTp=0 IEmpDi=  4
 NAtoms=   62 NActive=   62 NUniq=   62 SFac= 1.00D+00 NAtFMM=   60 NAOKFM=T Big=T
 Integral buffers will be    131072 words long.
 Raffenetti 2 integral format.
 Two-electron integral symmetry is turned on.
 Leave Link  301 at Tue Dec  5 18:16:29 2023, MaxMem=  2147483648 cpu:               3.4 elap:               0.3
 (Enter /opt/gaussian/g16-c01/g16/l302.exe)
 NPDir=0 NMtPBC=     1 NCelOv=     1 NCel=       1 NClECP=     1 NCelD=      1
         NCelK=      1 NCelE2=     1 NClLst=     1 CellRange=     0.0.
 One-electron integrals computed using PRISM.
 One-electron integral symmetry used in STVInt
 NBasis=   989 RedAO= T EigKep=  1.44D-06  NBF=   989
 NBsUse=   972 1.00D-06 EigRej=  9.95D-07 NBFU=   972
 Precomputing XC quadrature grid using
 IXCGrd= 4 IRadAn=           5 IRanWt=          -1 IRanGd=           0 AccXCQ= 0.00D+00.
 Generated NRdTot=       0 NPtTot=           0 NUsed=           0 NTot=          32
 NSgBfM=   972   972   972   972   972 MxSgAt=    62 MxSgA2=    62.
 Leave Link  302 at Tue Dec  5 18:17:25 2023, MaxMem=  2147483648 cpu:            1396.5 elap:              56.0
 (Enter /opt/gaussian/g16-c01/g16/l303.exe)
 DipDrv:  MaxL=1.
 Leave Link  303 at Tue Dec  5 18:17:31 2023, MaxMem=  2147483648 cpu:             132.8 elap:               5.6
 (Enter /opt/gaussian/g16-c01/g16/l401.exe)
 ExpMin= 3.15D-02 ExpMax= 1.14D+04 ExpMxC= 1.72D+03 IAcc=3 IRadAn=         5 AccDes= 0.00D+00
 Harris functional with IExCor= 1009 and IRadAn=       5 diagonalized for initial guess.
 HarFok:  IExCor= 1009 AccDes= 0.00D+00 IRadAn=         5 IDoV= 1 UseB2=F ITyADJ=14
 ICtDFT=  3500011 ScaDFX=  1.000000  1.000000  1.000000  1.000000
 FoFCou: FMM=F IPFlag=           0 FMFlag=      100000 FMFlg1=        2001
         NFxFlg=           0 DoJE=T BraDBF=F KetDBF=T FulRan=T
         wScrn=  0.000000 ICntrl=       500 IOpCl=  0 I1Cent=   200000004 NGrid=           0
         NMat0=    1 NMatS0=      1 NMatT0=    0 NMatD0=    1 NMtDS0=    0 NMtDT0=    0
 Petite list used in FoFCou.
 Harris En= -1567.66250085020    
 JPrj=0 DoOrth=F DoCkMO=F.
 Leave Link  401 at Tue Dec  5 18:17:53 2023, MaxMem=  2147483648 cpu:             545.6 elap:              22.0
 (Enter /opt/gaussian/g16-c01/g16/l502.exe)
 Integral symmetry usage will be decided dynamically.
 Closed shell SCF:
 Using DIIS extrapolation, IDIIS=  1040.
 NGot=  2147483648 LenX=  2145340614 LenY=  2144286912
 Requested convergence on RMS density matrix=1.00D-08 within 128 cycles.
 Requested convergence on MAX density matrix=1.00D-06.
 Requested convergence on             energy=1.00D-06.
 No special actions if energy rises.
 Fock matrices will be formed incrementally for  20 cycles.

 Cycle   1  Pass 1  IDiag  1:
 FoFJK:  IHMeth= 1 ICntrl=       0 DoSepK=F KAlg= 0 I1Cent=           0 FoldK=F
 IRaf= 780000000 NMat=       1 IRICut=       1 DoRegI=T DoRafI=F ISym2E= 0 IDoP0=0 IntGTp=1.
 FoFCou: FMM=T IPFlag=           0 FMFlag=      100000 FMFlg1=        2001
         NFxFlg=           0 DoJE=F BraDBF=F KetDBF=F FulRan=T
         wScrn=  0.000000 ICntrl=         0 IOpCl=  0 I1Cent=           0 NGrid=           0
         NMat0=    1 NMatS0=      1 NMatT0=    0 NMatD0=    1 NMtDS0=    0 NMtDT0=    0
 Symmetry not used in FoFCou.
 FMM levels:  10  Number of levels for PrismC:   9
 E= -1566.39230563106    
 DIIS: error= 2.36D-02 at cycle   1 NSaved=   1.
 NSaved= 1 IEnMin= 1 EnMin= -1566.39230563106     IErMin= 1 ErrMin= 2.36D-02
 ErrMax= 2.36D-02  0.00D+00 EMaxC= 1.00D-01 BMatC= 9.28D-01 BMatP= 9.28D-01
 IDIUse=3 WtCom= 7.64D-01 WtEn= 2.36D-01
 Coeff-Com:  0.100D+01
 Coeff-En:   0.100D+01
 Coeff:      0.100D+01
 Gap=     0.104 Goal=   None    Shift=    0.000
 GapD=    0.104 DampG=1.000 DampE=0.500 DampFc=0.5000 IDamp=-1.
 Damping current iteration by 5.00D-01
 RMSDP=1.54D-02 MaxDP=1.40D+00              OVMax= 2.64D-01

 Cycle   2  Pass 1  IDiag  1:
 RMSU=  5.90D-03    CP:  8.88D-01
 E= -1566.76795075938     Delta-E=       -0.375645128321 Rises=F Damp=T
 DIIS: error= 1.10D-02 at cycle   2 NSaved=   2.
 NSaved= 2 IEnMin= 2 EnMin= -1566.76795075938     IErMin= 2 ErrMin= 1.10D-02
 ErrMax= 1.10D-02  0.00D+00 EMaxC= 1.00D-01 BMatC= 1.00D-01 BMatP= 9.28D-01
 IDIUse=3 WtCom= 8.90D-01 WtEn= 1.10D-01
 Coeff-Com: -0.766D-01 0.108D+01
 Coeff-En:   0.000D+00 0.100D+01
 Coeff:     -0.682D-01 0.107D+01
 Gap=     0.163 Goal=   None    Shift=    0.000
 RMSDP=1.25D-02 MaxDP=1.57D+00 DE=-3.76D-01 OVMax= 2.41D-01

 Cycle   3  Pass 1  IDiag  1:
 RMSU=  5.68D-03    CP:  6.37D-01  8.15D-01
 E= -1567.10342331419     Delta-E=       -0.335472554809 Rises=F Damp=F
 DIIS: error= 7.39D-03 at cycle   3 NSaved=   3.
 NSaved= 3 IEnMin= 3 EnMin= -1567.10342331419     IErMin= 3 ErrMin= 7.39D-03
 ErrMax= 7.39D-03  0.00D+00 EMaxC= 1.00D-01 BMatC= 7.36D-02 BMatP= 1.00D-01
 IDIUse=3 WtCom= 9.26D-01 WtEn= 7.39D-02
 Coeff-Com: -0.118D+00 0.542D+00 0.576D+00
 Coeff-En:   0.000D+00 0.000D+00 0.100D+01
 Coeff:     -0.109D+00 0.502D+00 0.607D+00
 Gap=     0.128 Goal=   None    Shift=    0.000
 RMSDP=3.44D-03 MaxDP=3.46D-01 DE=-3.35D-01 OVMax= 1.27D-01

 Cycle   4  Pass 1  IDiag  1:
 RMSU=  2.41D-03    CP:  6.19D-01  1.11D+00  7.23D-01
 E= -1567.15325360104     Delta-E=       -0.049830286853 Rises=F Damp=F
 DIIS: error= 4.25D-03 at cycle   4 NSaved=   4.
 NSaved= 4 IEnMin= 4 EnMin= -1567.15325360104     IErMin= 4 ErrMin= 4.25D-03
 ErrMax= 4.25D-03  0.00D+00 EMaxC= 1.00D-01 BMatC= 2.07D-02 BMatP= 7.36D-02
 IDIUse=3 WtCom= 9.57D-01 WtEn= 4.25D-02
 Coeff-Com: -0.507D-01 0.157D+00 0.377D+00 0.517D+00
 Coeff-En:   0.000D+00 0.000D+00 0.254D+00 0.746D+00
 Coeff:     -0.485D-01 0.150D+00 0.371D+00 0.527D+00
 Gap=     0.126 Goal=   None    Shift=    0.000
 RMSDP=1.35D-03 MaxDP=1.24D-01 DE=-4.98D-02 OVMax= 4.59D-02

 Cycle   5  Pass 1  IDiag  1:
 RMSU=  5.79D-04    CP:  6.12D-01  1.08D+00  7.79D-01  5.37D-01
 E= -1567.17310593861     Delta-E=       -0.019852337571 Rises=F Damp=F
 DIIS: error= 9.25D-04 at cycle   5 NSaved=   5.
 NSaved= 5 IEnMin= 5 EnMin= -1567.17310593861     IErMin= 5 ErrMin= 9.25D-04
 ErrMax= 9.25D-04  0.00D+00 EMaxC= 1.00D-01 BMatC= 9.27D-04 BMatP= 2.07D-02
 IDIUse=3 WtCom= 9.91D-01 WtEn= 9.25D-03
 Coeff-Com: -0.195D-01 0.500D-01 0.160D+00 0.277D+00 0.532D+00
 Coeff-En:   0.000D+00 0.000D+00 0.000D+00 0.000D+00 0.100D+01
 Coeff:     -0.194D-01 0.496D-01 0.158D+00 0.275D+00 0.537D+00
 Gap=     0.127 Goal=   None    Shift=    0.000
 RMSDP=3.13D-04 MaxDP=3.75D-02 DE=-1.99D-02 OVMax= 9.94D-03

 Cycle   6  Pass 1  IDiag  1:
 RMSU=  2.31D-04    CP:  6.13D-01  1.08D+00  7.93D-01  5.95D-01  7.77D-01
 E= -1567.17391185820     Delta-E=       -0.000805919593 Rises=F Damp=F
 DIIS: error= 3.57D-04 at cycle   6 NSaved=   6.
 NSaved= 6 IEnMin= 6 EnMin= -1567.17391185820     IErMin= 6 ErrMin= 3.57D-04
 ErrMax= 3.57D-04  0.00D+00 EMaxC= 1.00D-01 BMatC= 1.22D-04 BMatP= 9.27D-04
 IDIUse=3 WtCom= 9.96D-01 WtEn= 3.57D-03
 Coeff-Com: -0.461D-02 0.910D-02 0.371D-01 0.804D-01 0.304D+00 0.574D+00
 Coeff-En:   0.000D+00 0.000D+00 0.000D+00 0.000D+00 0.957D-01 0.904D+00
 Coeff:     -0.459D-02 0.907D-02 0.370D-01 0.801D-01 0.303D+00 0.575D+00
 Gap=     0.127 Goal=   None    Shift=    0.000
 RMSDP=1.05D-04 MaxDP=6.84D-03 DE=-8.06D-04 OVMax= 4.97D-03

 Cycle   7  Pass 1  IDiag  1:
 RMSU=  7.41D-05    CP:  6.13D-01  1.07D+00  7.96D-01  5.83D-01  7.85D-01
                    CP:  7.55D-01
 E= -1567.17403420892     Delta-E=       -0.000122350713 Rises=F Damp=F
 DIIS: error= 9.67D-05 at cycle   7 NSaved=   7.
 NSaved= 7 IEnMin= 7 EnMin= -1567.17403420892     IErMin= 7 ErrMin= 9.67D-05
 ErrMax= 9.67D-05  0.00D+00 EMaxC= 1.00D-01 BMatC= 1.39D-05 BMatP= 1.22D-04
 IDIUse=1 WtCom= 1.00D+00 WtEn= 0.00D+00
 Coeff-Com:  0.324D-05-0.159D-02-0.196D-02 0.649D-02 0.101D+00 0.319D+00
 Coeff-Com:  0.577D+00
 Coeff:      0.324D-05-0.159D-02-0.196D-02 0.649D-02 0.101D+00 0.319D+00
 Coeff:      0.577D+00
 Gap=     0.128 Goal=   None    Shift=    0.000
 RMSDP=4.35D-05 MaxDP=5.85D-03 DE=-1.22D-04 OVMax= 1.76D-03

 Cycle   8  Pass 1  IDiag  1:
 RMSU=  2.26D-05    CP:  6.13D-01  1.07D+00  7.96D-01  5.89D-01  7.94D-01
                    CP:  8.97D-01  9.52D-01
 E= -1567.17404904936     Delta-E=       -0.000014840442 Rises=F Damp=F
 DIIS: error= 3.78D-05 at cycle   8 NSaved=   8.
 NSaved= 8 IEnMin= 8 EnMin= -1567.17404904936     IErMin= 8 ErrMin= 3.78D-05
 ErrMax= 3.78D-05  0.00D+00 EMaxC= 1.00D-01 BMatC= 1.09D-06 BMatP= 1.39D-05
 IDIUse=1 WtCom= 1.00D+00 WtEn= 0.00D+00
 Coeff-Com:  0.693D-03-0.227D-02-0.674D-02-0.898D-02 0.317D-02 0.651D-01
 Coeff-Com:  0.250D+00 0.699D+00
 Coeff:      0.693D-03-0.227D-02-0.674D-02-0.898D-02 0.317D-02 0.651D-01
 Coeff:      0.250D+00 0.699D+00
 Gap=     0.128 Goal=   None    Shift=    0.000
 RMSDP=1.26D-05 MaxDP=8.29D-04 DE=-1.48D-05 OVMax= 5.91D-04

 Cycle   9  Pass 1  IDiag  1:
 RMSU=  7.73D-06    CP:  6.13D-01  1.07D+00  7.95D-01  5.89D-01  8.02D-01
                    CP:  9.11D-01  9.90D-01  9.44D-01
 E= -1567.17405053563     Delta-E=       -0.000001486274 Rises=F Damp=F
 DIIS: error= 1.65D-05 at cycle   9 NSaved=   9.
 NSaved= 9 IEnMin= 9 EnMin= -1567.17405053563     IErMin= 9 ErrMin= 1.65D-05
 ErrMax= 1.65D-05  0.00D+00 EMaxC= 1.00D-01 BMatC= 1.64D-07 BMatP= 1.09D-06
 IDIUse=1 WtCom= 1.00D+00 WtEn= 0.00D+00
 Coeff-Com:  0.289D-03-0.725D-03-0.267D-02-0.473D-02-0.107D-01-0.817D-02
 Coeff-Com:  0.332D-01 0.300D+00 0.693D+00
 Coeff:      0.289D-03-0.725D-03-0.267D-02-0.473D-02-0.107D-01-0.817D-02
 Coeff:      0.332D-01 0.300D+00 0.693D+00
 Gap=     0.128 Goal=   None    Shift=    0.000
 RMSDP=5.08D-06 MaxDP=6.13D-04 DE=-1.49D-06 OVMax= 2.79D-04

 Cycle  10  Pass 1  IDiag  1:
 RMSU=  2.64D-06    CP:  6.13D-01  1.07D+00  7.95D-01  5.89D-01  8.03D-01
                    CP:  9.25D-01  1.01D+00  1.02D+00  9.50D-01
 E= -1567.17405077606     Delta-E=       -0.000000240432 Rises=F Damp=F
 DIIS: error= 9.85D-06 at cycle  10 NSaved=  10.
 NSaved=10 IEnMin=10 EnMin= -1567.17405077606     IErMin=10 ErrMin= 9.85D-06
 ErrMax= 9.85D-06  0.00D+00 EMaxC= 1.00D-01 BMatC= 3.06D-08 BMatP= 1.64D-07
 IDIUse=1 WtCom= 1.00D+00 WtEn= 0.00D+00
 Coeff-Com: -0.279D-07 0.930D-04 0.365D-04-0.381D-03-0.499D-02-0.139D-01
 Coeff-Com: -0.316D-01 0.285D-02 0.323D+00 0.725D+00
 Coeff:     -0.279D-07 0.930D-04 0.365D-04-0.381D-03-0.499D-02-0.139D-01
 Coeff:     -0.316D-01 0.285D-02 0.323D+00 0.725D+00
 Gap=     0.128 Goal=   None    Shift=    0.000
 RMSDP=1.94D-06 MaxDP=1.85D-04 DE=-2.40D-07 OVMax= 1.34D-04

 Cycle  11  Pass 1  IDiag  1:
 RMSU=  8.85D-07    CP:  6.13D-01  1.07D+00  7.95D-01  5.89D-01  8.03D-01
                    CP:  9.29D-01  1.01D+00  1.03D+00  1.08D+00  9.40D-01
 E= -1567.17405081966     Delta-E=       -0.000000043601 Rises=F Damp=F
 DIIS: error= 3.72D-06 at cycle  11 NSaved=  11.
 NSaved=11 IEnMin=11 EnMin= -1567.17405081966     IErMin=11 ErrMin= 3.72D-06
 ErrMax= 3.72D-06  0.00D+00 EMaxC= 1.00D-01 BMatC= 4.72D-09 BMatP= 3.06D-08
 IDIUse=1 WtCom= 1.00D+00 WtEn= 0.00D+00
 Coeff-Com: -0.373D-04 0.143D-03 0.346D-03 0.388D-03-0.157D-02-0.691D-02
 Coeff-Com: -0.228D-01-0.365D-01 0.970D-01 0.385D+00 0.585D+00
 Coeff:     -0.373D-04 0.143D-03 0.346D-03 0.388D-03-0.157D-02-0.691D-02
 Coeff:     -0.228D-01-0.365D-01 0.970D-01 0.385D+00 0.585D+00
 Gap=     0.128 Goal=   None    Shift=    0.000
 RMSDP=6.59D-07 MaxDP=5.90D-05 DE=-4.36D-08 OVMax= 2.95D-05

 Cycle  12  Pass 1  IDiag  1:
 RMSU=  3.48D-07    CP:  6.13D-01  1.07D+00  7.95D-01  5.89D-01  8.03D-01
                    CP:  9.29D-01  1.02D+00  1.04D+00  1.08D+00  1.02D+00
                    CP:  8.96D-01
 E= -1567.17405082524     Delta-E=       -0.000000005575 Rises=F Damp=F
 DIIS: error= 7.61D-07 at cycle  12 NSaved=  12.
 NSaved=12 IEnMin=12 EnMin= -1567.17405082524     IErMin=12 ErrMin= 7.61D-07
 ErrMax= 7.61D-07  0.00D+00 EMaxC= 1.00D-01 BMatC= 2.98D-10 BMatP= 4.72D-09
 IDIUse=1 WtCom= 1.00D+00 WtEn= 0.00D+00
 Coeff-Com: -0.162D-04 0.498D-04 0.131D-03 0.204D-03-0.730D-04-0.113D-02
 Coeff-Com: -0.536D-02-0.141D-01 0.177D-02 0.661D-01 0.234D+00 0.719D+00
 Coeff:     -0.162D-04 0.498D-04 0.131D-03 0.204D-03-0.730D-04-0.113D-02
 Coeff:     -0.536D-02-0.141D-01 0.177D-02 0.661D-01 0.234D+00 0.719D+00
 Gap=     0.128 Goal=   None    Shift=    0.000
 RMSDP=1.64D-07 MaxDP=1.30D-05 DE=-5.58D-09 OVMax= 1.21D-05

 Cycle  13  Pass 1  IDiag  1:
 RMSU=  1.11D-07    CP:  6.13D-01  1.07D+00  7.95D-01  5.89D-01  8.03D-01
                    CP:  9.29D-01  1.02D+00  1.04D+00  1.09D+00  1.02D+00
                    CP:  9.12D-01  9.66D-01
 E= -1567.17405082549     Delta-E=       -0.000000000246 Rises=F Damp=F
 DIIS: error= 1.93D-07 at cycle  13 NSaved=  13.
 NSaved=13 IEnMin=13 EnMin= -1567.17405082549     IErMin=13 ErrMin= 1.93D-07
 ErrMax= 1.93D-07  0.00D+00 EMaxC= 1.00D-01 BMatC= 5.59D-11 BMatP= 2.98D-10
 IDIUse=1 WtCom= 1.00D+00 WtEn= 0.00D+00
 Coeff-Com: -0.407D-05 0.891D-05 0.254D-04 0.585D-04 0.147D-03 0.255D-03
 Coeff-Com:  0.259D-05-0.252D-02-0.892D-02-0.951D-02 0.480D-01 0.356D+00
 Coeff-Com:  0.616D+00
 Coeff:     -0.407D-05 0.891D-05 0.254D-04 0.585D-04 0.147D-03 0.255D-03
 Coeff:      0.259D-05-0.252D-02-0.892D-02-0.951D-02 0.480D-01 0.356D+00
 Coeff:      0.616D+00
 Gap=     0.128 Goal=   None    Shift=    0.000
 RMSDP=8.14D-08 MaxDP=8.24D-06 DE=-2.46D-10 OVMax= 2.87D-06

 Cycle  14  Pass 1  IDiag  1:
 RMSU=  4.79D-08    CP:  6.13D-01  1.07D+00  7.95D-01  5.89D-01  8.03D-01
                    CP:  9.29D-01  1.02D+00  1.04D+00  1.09D+00  1.03D+00
                    CP:  9.40D-01  1.06D+00  8.19D-01
 E= -1567.17405082575     Delta-E=       -0.000000000260 Rises=F Damp=F
 DIIS: error= 5.72D-08 at cycle  14 NSaved=  14.
 NSaved=14 IEnMin=14 EnMin= -1567.17405082575     IErMin=14 ErrMin= 5.72D-08
 ErrMax= 5.72D-08  0.00D+00 EMaxC= 1.00D-01 BMatC= 6.44D-12 BMatP= 5.59D-11
 IDIUse=1 WtCom= 1.00D+00 WtEn= 0.00D+00
 Coeff-Com: -0.407D-06-0.668D-06-0.613D-06 0.922D-05 0.827D-04 0.248D-03
 Coeff-Com:  0.593D-03 0.199D-03-0.485D-02-0.127D-01-0.414D-02 0.948D-01
 Coeff-Com:  0.303D+00 0.622D+00
 Coeff:     -0.407D-06-0.668D-06-0.613D-06 0.922D-05 0.827D-04 0.248D-03
 Coeff:      0.593D-03 0.199D-03-0.485D-02-0.127D-01-0.414D-02 0.948D-01
 Coeff:      0.303D+00 0.622D+00
 Gap=     0.128 Goal=   None    Shift=    0.000
 RMSDP=2.42D-08 MaxDP=2.05D-06 DE=-2.60D-10 OVMax= 1.38D-06

 Cycle  15  Pass 1  IDiag  1:
 RMSU=  1.61D-08    CP:  6.13D-01  1.07D+00  7.95D-01  5.89D-01  8.03D-01
                    CP:  9.29D-01  1.02D+00  1.04D+00  1.09D+00  1.03D+00
                    CP:  9.44D-01  1.07D+00  8.80D-01  1.02D+00
 E= -1567.17405082579     Delta-E=       -0.000000000049 Rises=F Damp=F
 DIIS: error= 2.23D-08 at cycle  15 NSaved=  15.
 NSaved=15 IEnMin=15 EnMin= -1567.17405082579     IErMin=15 ErrMin= 2.23D-08
 ErrMax= 2.23D-08  0.00D+00 EMaxC= 1.00D-01 BMatC= 5.68D-13 BMatP= 6.44D-12
 IDIUse=1 WtCom= 1.00D+00 WtEn= 0.00D+00
 Coeff-Com:  0.373D-06-0.143D-05-0.387D-05-0.374D-05 0.128D-04 0.656D-04
 Coeff-Com:  0.251D-03 0.377D-03-0.783D-03-0.395D-02-0.807D-02-0.579D-02
 Coeff-Com:  0.441D-01 0.250D+00 0.724D+00
 Coeff:      0.373D-06-0.143D-05-0.387D-05-0.374D-05 0.128D-04 0.656D-04
 Coeff:      0.251D-03 0.377D-03-0.783D-03-0.395D-02-0.807D-02-0.579D-02
 Coeff:      0.441D-01 0.250D+00 0.724D+00
 Gap=     0.128 Goal=   None    Shift=    0.000
 RMSDP=1.36D-08 MaxDP=1.56D-06 DE=-4.91D-11 OVMax= 3.40D-07

 Cycle  16  Pass 1  IDiag  1:
 RMSU=  5.32D-09    CP:  6.13D-01  1.07D+00  7.95D-01  5.89D-01  8.03D-01
                    CP:  9.29D-01  1.02D+00  1.04D+00  1.09D+00  1.03D+00
                    CP:  9.44D-01  1.08D+00  8.97D-01  1.14D+00  1.08D+00
 E= -1567.17405082564     Delta-E=        0.000000000155 Rises=F Damp=F
 DIIS: error= 6.79D-09 at cycle  16 NSaved=  16.
 NSaved=16 IEnMin=15 EnMin= -1567.17405082579     IErMin=16 ErrMin= 6.79D-09
 ErrMax= 6.79D-09  0.00D+00 EMaxC= 1.00D-01 BMatC= 9.24D-14 BMatP= 5.68D-13
 IDIUse=1 WtCom= 1.00D+00 WtEn= 0.00D+00
 Coeff-Com:  0.194D-06-0.493D-06-0.156D-05-0.251D-05-0.541D-05-0.416D-05
 Coeff-Com:  0.339D-04 0.142D-03 0.399D-03 0.136D-03-0.299D-02-0.153D-01
 Coeff-Com: -0.225D-01 0.329D-01 0.330D+00 0.677D+00
 Coeff:      0.194D-06-0.493D-06-0.156D-05-0.251D-05-0.541D-05-0.416D-05
 Coeff:      0.339D-04 0.142D-03 0.399D-03 0.136D-03-0.299D-02-0.153D-01
 Coeff:     -0.225D-01 0.329D-01 0.330D+00 0.677D+00
 Gap=     0.128 Goal=   None    Shift=    0.000
 RMSDP=4.87D-09 MaxDP=3.66D-07 DE= 1.55D-10 OVMax= 1.88D-07

 SCF Done:  E(RMN15) =  -1567.17405083     A.U. after   16 cycles
            NFock= 16  Conv=0.49D-08     -V/T= 2.0027
 KE= 1.562984516733D+03 PE=-1.077484113257D+04 EE= 4.084385703564D+03
 Leave Link  502 at Tue Dec  5 18:28:23 2023, MaxMem=  2147483648 cpu:           16104.2 elap:             630.1
 (Enter /opt/gaussian/g16-c01/g16/l601.exe)
 Copying SCF densities to generalized density rwf, IOpCl= 0 IROHF=0.

 **********************************************************************

            Population analysis using the SCF Density.

 **********************************************************************

 Orbital symmetries:
       Occupied  (A) (A) (A) (A) (A) (A) (A) (A) (A) (A) (A) (A)
                 (A) (A) (A) (A) (A) (A) (A) (A) (A) (A) (A) (A)
                 (A) (A) (A) (A) (A) (A) (A) (A) (A) (A) (A) (A)
                 (A) (A) (A) (A) (A) (A) (A) (A) (A) (A) (A) (A)
                 (A) (A) (A) (A) (A) (A) (A) (A) (A) (A) (A) (A)
                 (A) (A) (A) (A) (A) (A) (A) (A) (A) (A) (A) (A)
                 (A) (A) (A) (A) (A) (A) (A) (A) (A) (A) (A) (A)
                 (A) (A) (A) (A) (A) (A) (A) (A) (A) (A) (A) (A)
                 (A) (A) (A) (A) (A) (A) (A) (A) (A) (A) (A) (A)
                 (A) (A) (A) (A) (A) (A) (A) (A) (A) (A) (A) (A)
                 (A) (A) (A) (A) (A) (A) (A)
       Virtual   (A) (A) (A) (A) (A) (A) (A) (A) (A) (A) (A) (A)
                 (A) (A) (A) (A) (A) (A) (A) (A) (A) (A) (A) (A)
                 (A) (A) (A) (A) (A) (A) (A) (A) (A) (A) (A) (A)
                 (A) (A) (A) (A) (A) (A) (A) (A) (A) (A) (A) (A)
                 (A) (A) (A) (A) (A) (A) (A) (A) (A) (A) (A) (A)
                 (A) (A) (A) (A) (A) (A) (A) (A) (A) (A) (A) (A)
                 (A) (A) (A) (A) (A) (A) (A) (A) (A) (A) (A) (A)
                 (A) (A) (A) (A) (A) (A) (A) (A) (A) (A) (A) (A)
                 (A) (A) (A) (A) (A) (A) (A) (A) (A) (A) (A) (A)
                 (A) (A) (A) (A) (A) (A) (A) (A) (A) (A) (A) (A)
                 (A) (A) (A) (A) (A) (A) (A) (A) (A) (A) (A) (A)
                 (A) (A) (A) (A) (A) (A) (A) (A) (A) (A) (A) (A)
                 (A) (A) (A) (A) (A) (A) (A) (A) (A) (A) (A) (A)
                 (A) (A) (A) (A) (A) (A) (A) (A) (A) (A) (A) (A)
                 (A) (A) (A) (A) (A) (A) (A) (A) (A) (A) (A) (A)
                 (A) (A) (A) (A) (A) (A) (A) (A) (A) (A) (A) (A)
                 (A) (A) (A) (A) (A) (A) (A) (A) (A) (A) (A) (A)
                 (A) (A) (A) (A) (A) (A) (A) (A) (A) (A) (A) (A)
                 (A) (A) (A) (A) (A) (A) (A) (A) (A) (A) (A) (A)
                 (A) (A) (A) (A) (A) (A) (A) (A) (A) (A) (A) (A)
                 (A) (A) (A) (A) (A) (A) (A) (A) (A) (A) (A) (A)
                 (A) (A) (A) (A) (A) (A) (A) (A) (A) (A) (A) (A)
                 (A) (A) (A) (A) (A) (A) (A) (A) (A) (A) (A) (A)
                 (A) (A) (A) (A) (A) (A) (A) (A) (A) (A) (A) (A)
                 (A) (A) (A) (A) (A) (A) (A) (A) (A) (A) (A) (A)
                 (A) (A) (A) (A) (A) (A) (A) (A) (A) (A) (A) (A)
                 (A) (A) (A) (A) (A) (A) (A) (A) (A) (A) (A) (A)
                 (A) (A) (A) (A) (A) (A) (A) (A) (A) (A) (A) (A)
                 (A) (A) (A) (A) (A) (A) (A) (A) (A) (A) (A) (A)
                 (A) (A) (A) (A) (A) (A) (A) (A) (A) (A) (A) (A)
                 (A) (A) (A) (A) (A) (A) (A) (A) (A) (A) (A) (A)
                 (A) (A) (A) (A) (A) (A) (A) (A) (A) (A) (A) (A)
                 (A) (A) (A) (A) (A) (A) (A) (A) (A) (A) (A) (A)
                 (A) (A) (A) (A) (A) (A) (A) (A) (A) (A) (A) (A)
                 (A) (A) (A) (A) (A) (A) (A) (A) (A) (A) (A) (A)
                 (A) (A) (A) (A) (A) (A) (A) (A) (A) (A) (A) (A)
                 (A) (A) (A) (A) (A) (A) (A) (A) (A) (A) (A) (A)
                 (A) (A) (A) (A) (A) (A) (A) (A) (A) (A) (A) (A)
                 (A) (A) (A) (A) (A) (A) (A) (A) (A) (A) (A) (A)
                 (A) (A) (A) (A) (A) (A) (A) (A) (A) (A) (A) (A)
                 (A) (A) (A) (A) (A) (A) (A) (A) (A) (A) (A) (A)
                 (A) (A) (A) (A) (A) (A) (A) (A) (A) (A) (A) (A)
                 (A) (A) (A) (A) (A) (A) (A) (A) (A) (A) (A) (A)
                 (A) (A) (A) (A) (A) (A) (A) (A) (A) (A) (A) (A)
                 (A) (A) (A) (A) (A) (A) (A) (A) (A) (A) (A) (A)
                 (A) (A) (A) (A) (A) (A) (A) (A) (A) (A) (A) (A)
                 (A) (A) (A) (A) (A) (A) (A) (A) (A) (A) (A) (A)
                 (A) (A) (A) (A) (A) (A) (A) (A) (A) (A) (A) (A)
                 (A) (A) (A) (A) (A) (A) (A) (A) (A) (A) (A) (A)
                 (A) (A) (A) (A) (A) (A) (A) (A) (A) (A) (A) (A)
                 (A) (A) (A) (A) (A) (A) (A) (A) (A) (A) (A) (A)
                 (A) (A) (A) (A) (A) (A) (A) (A) (A) (A) (A) (A)
                 (A) (A) (A) (A) (A) (A) (A) (A) (A) (A) (A) (A)
                 (A) (A) (A) (A) (A) (A) (A) (A) (A) (A) (A) (A)
                 (A) (A) (A) (A) (A) (A) (A) (A) (A) (A) (A) (A)
                 (A) (A) (A) (A) (A) (A) (A) (A) (A) (A) (A) (A)
                 (A) (A) (A) (A) (A) (A) (A) (A) (A) (A) (A) (A)
                 (A) (A) (A) (A) (A) (A) (A) (A) (A) (A) (A) (A)
                 (A) (A) (A) (A) (A) (A) (A) (A) (A) (A) (A) (A)
                 (A) (A) (A) (A) (A) (A) (A) (A) (A) (A) (A) (A)
                 (A) (A) (A) (A) (A) (A) (A) (A) (A) (A) (A) (A)
                 (A) (A) (A) (A) (A) (A) (A) (A) (A) (A) (A) (A)
                 (A) (A) (A) (A) (A) (A) (A) (A) (A) (A) (A) (A)
                 (A) (A) (A) (A) (A) (A) (A) (A) (A) (A) (A) (A)
                 (A) (A) (A) (A) (A) (A) (A) (A) (A) (A) (A) (A)
                 (A) (A) (A) (A) (A) (A) (A) (A) (A) (A) (A) (A)
                 (A) (A) (A) (A) (A) (A) (A) (A) (A) (A) (A) (A)
                 (A) (A) (A) (A) (A) (A) (A) (A) (A) (A) (A) (A)
                 (A) (A) (A) (A) (A) (A) (A) (A) (A) (A) (A) (A)
                 (A) (A) (A) (A) (A) (A) (A) (A) (A) (A) (A) (A)
                 (A) (A) (A) (A) (A)
 The electronic state is 1-A.
 Alpha  occ. eigenvalues --  -24.19488 -24.18550 -14.13925 -14.11086 -10.12134
 Alpha  occ. eigenvalues --  -10.09324 -10.08717 -10.07718 -10.07527 -10.07371
 Alpha  occ. eigenvalues --  -10.06558 -10.06255 -10.06153 -10.06021 -10.05945
 Alpha  occ. eigenvalues --  -10.05603 -10.05545 -10.05528 -10.05062 -10.05006
 Alpha  occ. eigenvalues --  -10.04964 -10.04931 -10.04922 -10.04897 -10.04791
 Alpha  occ. eigenvalues --  -10.04736 -10.04263 -10.03713 -10.03681 -10.03543
 Alpha  occ. eigenvalues --  -10.03337 -10.03211 -10.03116 -10.03097 -10.02977
 Alpha  occ. eigenvalues --  -10.02395  -6.77741  -1.17215  -1.13938  -1.05813
 Alpha  occ. eigenvalues --   -1.03644  -0.94328  -0.92834  -0.91678  -0.89342
 Alpha  occ. eigenvalues --   -0.86983  -0.86377  -0.85323  -0.83400  -0.82150
 Alpha  occ. eigenvalues --   -0.81544  -0.80593  -0.80430  -0.79282  -0.78935
 Alpha  occ. eigenvalues --   -0.75492  -0.74736  -0.70754  -0.68723  -0.67596
 Alpha  occ. eigenvalues --   -0.66787  -0.66705  -0.65941  -0.65543  -0.64867
 Alpha  occ. eigenvalues --   -0.63878  -0.63246  -0.62365  -0.60457  -0.59988
 Alpha  occ. eigenvalues --   -0.58269  -0.57855  -0.56383  -0.55811  -0.54308
 Alpha  occ. eigenvalues --   -0.53753  -0.53685  -0.52412  -0.51479  -0.51353
 Alpha  occ. eigenvalues --   -0.51152  -0.50449  -0.49946  -0.49376  -0.48794
 Alpha  occ. eigenvalues --   -0.48705  -0.48568  -0.48192  -0.47834  -0.47428
 Alpha  occ. eigenvalues --   -0.47214  -0.46923  -0.46875  -0.46234  -0.45895
 Alpha  occ. eigenvalues --   -0.45563  -0.44788  -0.44147  -0.43876  -0.43601
 Alpha  occ. eigenvalues --   -0.42994  -0.42917  -0.42485  -0.41589  -0.41171
 Alpha  occ. eigenvalues --   -0.41100  -0.40268  -0.40151  -0.39656  -0.39290
 Alpha  occ. eigenvalues --   -0.39071  -0.38966  -0.38373  -0.38012  -0.37958
 Alpha  occ. eigenvalues --   -0.36915  -0.36060  -0.33817  -0.33083  -0.31018
 Alpha  occ. eigenvalues --   -0.30227  -0.29574  -0.29162  -0.28979  -0.28674
 Alpha  occ. eigenvalues --   -0.26352  -0.22060
 Alpha virt. eigenvalues --   -0.09288  -0.03176  -0.01331  -0.00536   0.00153
 Alpha virt. eigenvalues --    0.00504   0.01975   0.02419   0.02999   0.03665
 Alpha virt. eigenvalues --    0.03770   0.03973   0.04229   0.04578   0.04820
 Alpha virt. eigenvalues --    0.05244   0.05493   0.05628   0.06096   0.06192
 Alpha virt. eigenvalues --    0.06375   0.06818   0.06970   0.07091   0.07541
 Alpha virt. eigenvalues --    0.08056   0.08181   0.08469   0.08731   0.09333
 Alpha virt. eigenvalues --    0.09757   0.09856   0.09976   0.10219   0.10389
 Alpha virt. eigenvalues --    0.10499   0.10852   0.10995   0.11375   0.11611
 Alpha virt. eigenvalues --    0.11953   0.12071   0.12139   0.12464   0.12654
 Alpha virt. eigenvalues --    0.12736   0.13146   0.13422   0.13625   0.13864
 Alpha virt. eigenvalues --    0.14003   0.14043   0.14221   0.14458   0.14630
 Alpha virt. eigenvalues --    0.14707   0.14770   0.15028   0.15114   0.15169
 Alpha virt. eigenvalues --    0.15319   0.15571   0.15633   0.15808   0.16042
 Alpha virt. eigenvalues --    0.16055   0.16301   0.16643   0.16718   0.16780
 Alpha virt. eigenvalues --    0.16932   0.17063   0.17109   0.17419   0.17678
 Alpha virt. eigenvalues --    0.17710   0.17842   0.18165   0.18267   0.18477
 Alpha virt. eigenvalues --    0.18641   0.18732   0.18853   0.19000   0.19059
 Alpha virt. eigenvalues --    0.19309   0.19479   0.19528   0.19739   0.20062
 Alpha virt. eigenvalues --    0.20224   0.20497   0.20540   0.20699   0.20854
 Alpha virt. eigenvalues --    0.21172   0.21279   0.21605   0.21686   0.21762
 Alpha virt. eigenvalues --    0.21926   0.22252   0.22391   0.22557   0.22654
 Alpha virt. eigenvalues --    0.23011   0.23185   0.23410   0.23621   0.23738
 Alpha virt. eigenvalues --    0.23908   0.24122   0.24164   0.24293   0.24607
 Alpha virt. eigenvalues --    0.24839   0.24896   0.25081   0.25163   0.25337
 Alpha virt. eigenvalues --    0.25658   0.25808   0.26072   0.26382   0.26652
 Alpha virt. eigenvalues --    0.26762   0.26800   0.27040   0.27163   0.27600
 Alpha virt. eigenvalues --    0.27764   0.27958   0.28045   0.28401   0.28514
 Alpha virt. eigenvalues --    0.28626   0.28818   0.28966   0.29163   0.29391
 Alpha virt. eigenvalues --    0.29740   0.29869   0.30186   0.30679   0.30859
 Alpha virt. eigenvalues --    0.30903   0.31078   0.31590   0.31702   0.31778
 Alpha virt. eigenvalues --    0.32002   0.32276   0.32511   0.32864   0.32920
 Alpha virt. eigenvalues --    0.33136   0.33266   0.33399   0.33544   0.33848
 Alpha virt. eigenvalues --    0.33951   0.34146   0.34371   0.34846   0.34860
 Alpha virt. eigenvalues --    0.34952   0.35127   0.35439   0.35686   0.35864
 Alpha virt. eigenvalues --    0.36019   0.36161   0.36443   0.36823   0.36931
 Alpha virt. eigenvalues --    0.37054   0.37363   0.37508   0.37714   0.37965
 Alpha virt. eigenvalues --    0.38036   0.38315   0.38602   0.39084   0.39140
 Alpha virt. eigenvalues --    0.39198   0.39589   0.39671   0.39889   0.40225
 Alpha virt. eigenvalues --    0.40582   0.40694   0.40993   0.41085   0.41495
 Alpha virt. eigenvalues --    0.41695   0.42146   0.42431   0.42933   0.43212
 Alpha virt. eigenvalues --    0.43770   0.43848   0.44010   0.44183   0.44350
 Alpha virt. eigenvalues --    0.44674   0.45404   0.45686   0.45923   0.46328
 Alpha virt. eigenvalues --    0.46994   0.47537   0.48051   0.48475   0.48990
 Alpha virt. eigenvalues --    0.49294   0.49702   0.50232   0.50569   0.51097
 Alpha virt. eigenvalues --    0.51326   0.51480   0.51543   0.52256   0.52412
 Alpha virt. eigenvalues --    0.52633   0.53487   0.54161   0.54929   0.55090
 Alpha virt. eigenvalues --    0.55766   0.56166   0.56368   0.56662   0.56706
 Alpha virt. eigenvalues --    0.57114   0.57585   0.57934   0.58325   0.58490
 Alpha virt. eigenvalues --    0.58652   0.59012   0.59200   0.59419   0.59492
 Alpha virt. eigenvalues --    0.59593   0.59792   0.60266   0.60650   0.60745
 Alpha virt. eigenvalues --    0.60803   0.61119   0.61287   0.61514   0.61708
 Alpha virt. eigenvalues --    0.62219   0.62506   0.62653   0.63089   0.63181
 Alpha virt. eigenvalues --    0.63484   0.63631   0.63902   0.64188   0.64563
 Alpha virt. eigenvalues --    0.65062   0.65530   0.65584   0.65702   0.66265
 Alpha virt. eigenvalues --    0.66379   0.66618   0.66845   0.66921   0.67482
 Alpha virt. eigenvalues --    0.67878   0.68571   0.69141   0.69206   0.69777
 Alpha virt. eigenvalues --    0.69963   0.70248   0.71034   0.71119   0.71788
 Alpha virt. eigenvalues --    0.71883   0.72267   0.72403   0.72433   0.72854
 Alpha virt. eigenvalues --    0.73409   0.73854   0.73965   0.74248   0.74420
 Alpha virt. eigenvalues --    0.74620   0.75002   0.75294   0.75713   0.75884
 Alpha virt. eigenvalues --    0.76117   0.76367   0.76721   0.77132   0.77450
 Alpha virt. eigenvalues --    0.78103   0.78341   0.78728   0.78862   0.79171
 Alpha virt. eigenvalues --    0.79464   0.79882   0.80055   0.80505   0.80590
 Alpha virt. eigenvalues --    0.81136   0.81414   0.81565   0.81934   0.82405
 Alpha virt. eigenvalues --    0.82787   0.83073   0.83342   0.83854   0.84060
[...]
 00367,0.00000105,-0.00000681,-0.00007509,-0.00016340,0.00029655,0.0001
 4785,-0.00023716,-0.00008038,0.00011561,0.00037304,-0.00008616,-0.0008
 4941,-0.00022940,0.00003564,0.00045152,-0.00057323,0.00016842,0.000250
 28,0.00008623,0.00006718,-0.00009911,-0.00003026,-0.00003217,0.0000568
 4,-0.00012284,-0.00000575,0.00013951,0.00007181,0.00003598,0.00001097,
 0.00001808,-0.00000642,0.00000352,-0.00000872,-0.00000214,-0.00000833,
 0.00000842,0.00000095,0.00000572,-0.00000309,0.00000127,0.00000304,0.0
 0000257,0.00000097,0.00000478,-0.00000601,-0.00000193,-0.00000392,-0.0
 0000242,0.00000181,0.00000341,-0.00000644,-0.00000298,-0.00010534,0.00
 001324,0.00000225,0.00034599,0.00016736,-0.00008645,-0.00006249,0.0000
 3623,0.00004428,-0.00015599,0.00009685,-0.00006388,-0.00277298,0.00055
 893,-0.00043483,-0.00092468,-0.00442815,-0.00123547,0.00119403,0.00006
 178,0.00011017,0.00003622,0.00004147,-0.00000840,-0.00002372,0.0000446
 4,0.00000241,0.00001702,-0.00002397,0.00000470,-0.00001805,0.00000182,
 -0.00000517,0.00000352,-0.00002214,-0.00000348,-0.00000202,0.00000420,
 0.00000218,0.00001813,-0.00003733,-0.00000412,0.01755735,-0.00898861,0
 .00053473,0.14785573,-0.25162209,-0.00320009,-0.00341904,0.00580581,-0
 .00004003,-0.00058980,-0.00113198,-0.00125743,0.00001454,0.00009992,-0
 .00015408,-0.00000106,-0.00000159,-0.00000500,-0.00000118,0.00000506,0
 .00000392,0.00000367,0.00001325,0.00000200,-0.00000195,0.00000267,-0.0
 0001572,0.00001057,0.00001263,-0.00000756,-0.00000598,0.00000186,-0.00
 000938,0.00000495,-0.00000428,0.00000012,0.00000543,-0.00000521,-0.000
 00130,-0.00000316,-0.00000052,0.00000037,-0.00000050,0.00000089,-0.000
 00035,-0.00000048,-0.00000188,-0.00000034,0.00000103,-0.00000121,0.,0.
 00000217,0.00000007,-0.00000013,-0.00000150,0.00000066,0.00000034,-0.0
 0004037,-0.00035966,-0.00000455,-0.00002311,0.00003301,0.00000485,-0.0
 0001755,0.00000710,0.00000057,0.00000270,-0.00000280,-0.00000015,-0.00
 000132,-0.00000331,-0.00000016,-0.00000356,-0.00000674,-0.00000124,-0.
 00000496,0.00000508,0.00000018,-0.00051939,0.00076413,0.00043019,-0.15
 828243,0.25988543,0.00005072,0.00000809,0.00000589,-0.00016695,-0.0001
 0201,0.00024481,0.00019051,-0.00011931,-0.00024154,0.00030352,0.000375
 02,-0.00023387,-0.00037396,-0.00072255,0.00017474,0.00006953,0.0004390
 1,-0.00199419,0.00035823,0.00002375,-0.00006334,-0.00018070,-0.0000775
 6,0.00013095,0.00004201,-0.00013799,-0.00008656,0.00011976,0.00008540,
 0.00001943,0.00003232,0.00000148,0.00003451,-0.00001604,-0.00000830,-0
 .00000414,-0.00000272,0.00000124,0.00000420,0.00000873,0.00000025,-0.0
 0000246,0.00000360,0.00000323,-0.00000316,0.00000519,-0.00000562,0.000
 00037,-0.00000351,-0.00000387,-0.00000192,-0.00000089,-0.00000574,-0.0
 0000500,-0.00010754,0.00001806,-0.00012768,0.00028786,-0.00003901,0.00
 143473,-0.00060188,0.00022807,0.00013684,0.00041946,-0.00020881,0.0000
 4559,-0.00121217,-0.00006292,0.00327173,-0.00110625,-0.00135681,0.0058
 4719,0.00014653,-0.00008943,0.00024290,0.00002506,0.00002062,0.0000971
 7,-0.00000145,-0.00000438,-0.00001283,0.00000142,0.00000095,-0.0000272
 2,-0.00000351,-0.00000258,0.00001684,-0.00000120,-0.00000190,-0.000002
 76,0.00000119,-0.00000219,-0.00000152,0.00000640,0.00000017,-0.0000025
 8,0.00248248,-0.00278914,0.00384517,-0.00123633,-0.00298970,-0.0329313
 4,-0.00039273,0.00266693,0.00026769,-0.00079172,-0.00077217,0.00004683
 ,0.00007381,0.00024687,-0.00010328,-0.00000799,0.00000189,-0.00000323,
 -0.00000539,-0.00001636,-0.00000905,0.00000423,0.00001225,-0.00000944,
 -0.00000587,-0.00000836,-0.00003396,0.00003484,0.00002925,-0.00002651,
 -0.00000862,-0.00000360,0.00004135,0.00000302,-0.00000162,-0.00000924,
 0.00000699,-0.00000704,0.00001336,-0.00000268,-0.00000031,-0.00000388,
 -0.00000076,0.00000052,0.00000346,-0.00000004,-0.00000234,0.00000131,0
 .00000068,-0.00000094,0.00000047,0.00000172,-0.00000035,0.00000129,-0.
 00000143,0.00000039,0.00000080,0.00002923,-0.00001878,-0.00034848,-0.0
 0000787,0.00000299,0.00003653,-0.00000183,0.00000055,0.00000063,-0.000
 00002,-0.00000016,0.00000154,-0.00000024,-0.00000007,0.00000131,-0.000
 00058,-0.00000119,0.00000148,-0.00000148,-0.00000013,0.00000588,0.0003
 4274,0.00056936,-0.00363707,0.00158890,0.00507035,0.02465019,0.0001753
 8,0.00029395,-0.00025722,0.00356308,0.00339829,0.00315699,-0.00084683,
 0.00056344,-0.00030421,0.00047166,0.00235214,0.00544233,-0.00311727,-0
 .01469923,0.01320612,-0.00121604,-0.00237747,-0.00184887,-0.00058339,0
 .00041489,0.00002640,0.00017150,0.00003338,-0.00007664,-0.00005913,0.0
 0016962,0.00002385,-0.00019861,-0.00006405,0.00000865,-0.00000749,-0.0
 0001531,-0.00003276,-0.00000627,0.00001748,-0.00000347,0.00000445,-0.0
 0000640,0.00000266,-0.00000658,0.00000192,0.00000050,0.00000068,-0.000
 00116,-0.00000304,-0.00000341,0.00000310,0.00000073,0.00000183,0.00000
 142,-0.00000145,-0.00000116,0.00000362,-0.00000138,0.00009336,-0.00006
 640,0.00011154,-0.00012982,-0.00007493,0.00008643,0.00003287,0.0000129
 4,-0.00002887,0.00003022,0.00002910,-0.00005709,-0.00027517,0.00010217
 ,0.00010339,0.00009947,-0.00002698,0.00003370,-0.00010901,-0.00004273,
 -0.00001523,0.00005351,0.00001229,-0.00000216,-0.00000654,0.00001073,0
 .00001367,-0.00001235,-0.00000999,-0.00000700,-0.00001554,-0.00000129,
 -0.00000088,0.00000205,-0.00002080,-0.00000516,0.00001228,0.00000066,0
 .00000050,0.00001844,-0.00001712,-0.00000012,-0.00000966,-0.00007660,-
 0.00009999,0.00053747,-0.00016339,-0.00016935,0.00003908,-0.00020843,-
 0.00041742,-0.07601246,-0.06197377,0.06549665,0.00756263,0.00869414,-0
 .00692620,0.00000246,0.00004961,-0.00001782,0.00000126,-0.00002213,-0.
 00001749,-0.00009246,0.00013034,-0.00003970,-0.00044152,-0.00020435,-0
 .00044678,-0.00017571,-0.00078599,0.00066967,0.00002367,-0.00000722,0.
 00004219,-0.00000360,0.00000112,0.00001031,-0.00000739,0.00000472,0.00
 000568,0.00000184,0.00000006,0.00000315,0.00000055,-0.00000036,0.00000
 177,-0.00000080,0.00000119,0.00000087,-0.00000001,-0.00000016,0.000000
 46,-0.00000032,0.00000027,0.00000072,0.00000027,-0.00000022,0.00000179
 ,0.00000023,-0.00000266,0.00000754,-0.00000311,-0.00000343,-0.00000207
 ,-0.00000213,0.00000301,0.00000165,0.00000327,-0.00000320,0.00000024,-
 0.00000013,-0.00000293,0.00000052,-0.00000369,-0.00000472,-0.00000090,
 -0.00000097,0.00000361,0.00000029,-0.00000871,-0.00002852,-0.00001081,
 -0.00009507,-0.00023501,-0.00039658,0.07249719,-0.00073048,-0.00040019
 ,0.00076168,0.00364062,-0.00344530,-0.00046209,0.00057223,-0.00022524,
 -0.00083019,0.00199842,0.00122736,-0.00068633,0.00309445,0.00658496,-0
 .00477061,-0.00015946,0.00031297,-0.00094958,-0.00029494,0.00018637,0.
 00011001,0.00014810,0.00005558,0.00000133,-0.00005914,0.00012228,0.000
 00213,0.00000365,-0.00008447,-0.00000497,-0.00008125,0.00002135,0.0000
 0874,0.00004783,0.00000023,0.00000320,-0.00000625,0.00000472,0.0000007
 3,-0.00000655,-0.00000266,-0.00000373,-0.00000731,-0.00000329,-0.00000
 026,-0.00000556,0.00000600,0.00000030,0.00000346,0.00000650,0.00000045
 ,0.00000577,0.00000924,0.00000051,-0.00007772,-0.00005660,-0.00008154,
 0.00009788,-0.00003972,-0.00000192,-0.00002474,0.00001417,0.00001784,-
 0.00002350,0.00002148,-0.00001746,-0.00013929,-0.00014133,0.00025630,0
 .00015917,-0.00009131,0.00002001,0.00003234,0.00003412,0.00000073,-0.0
 0001993,-0.00001478,-0.00001067,-0.00000124,-0.00000226,0.00000653,0.0
 0000415,0.00000521,-0.00000367,0.00000618,0.00000098,0.00000235,0.0000
 0037,0.00000858,0.00000015,-0.00000558,0.00000128,-0.00000215,-0.00000
 726,0.00000538,0.00000036,0.00001279,0.00006834,-0.00010100,-0.0005138
 2,-0.00047028,-0.00073338,0.00029933,-0.00002221,-0.00034002,-0.063124
 22,-0.20357095,0.13115199,-0.01047013,-0.01437239,0.01820510,0.0000589
 3,-0.00008048,0.00002110,0.00000823,0.00002584,-0.00006047,0.00011281,
 -0.00033740,0.00001706,-0.00018521,-0.00007710,-0.00005924,0.00022873,
 0.00030146,-0.00024737,-0.00000797,-0.00000708,0.00000578,-0.00000682,
 0.00000096,0.00000228,0.00000147,0.00000260,-0.00000255,-0.00000037,-0
 .00000093,0.00000194,0.00000036,-0.00000231,0.00000132,0.00000037,0.00
 000210,0.00000054,-0.00000124,0.00000130,0.00000032,-0.00000301,0.0000
 0028,0.00000037,0.00000114,-0.00000172,0.00000057,-0.00000245,0.000002
 58,-0.00000008,-0.00000287,-0.00000410,0.,0.00000158,-0.00000220,0.000
 00146,-0.00000174,0.00000127,0.00000021,-0.00000017,0.00000166,0.00000
 075,0.00000198,0.00000216,0.00000079,-0.00000049,-0.00000241,0.0000006
 8,-0.00000139,0.00001757,0.00000549,0.00002957,-0.00021610,-0.00019243
 ,0.06601645,0.21390217,-0.00013770,-0.00010902,0.00010767,0.00324770,-
 0.00049149,0.00394543,-0.00025054,-0.00081542,-0.00042767,0.00548781,-
 0.00088309,0.00050768,0.00555739,0.01663877,-0.00801235,-0.00147692,0.
 00049110,-0.00099974,-0.00061674,0.00019717,0.00009628,0.00034570,0.00
 009353,0.00002885,-0.00016511,0.00030032,0.00003022,-0.00020417,-0.000
 20487,-0.00006172,-0.00008637,-0.00000611,-0.00001705,0.00003959,0.000
 01723,0.00000433,0.00000508,-0.00001042,0.00000401,-0.00001289,0.00000
 213,-0.00000105,-0.00001044,-0.00000801,-0.00000142,-0.00001173,0.0000
 1432,-0.00000039,0.00000850,0.00000753,0.00000048,0.00000126,0.0000188
 1,0.00000290,0.00009994,-0.00022904,0.00003252,0.00023257,-0.00009260,
 0.00001040,-0.00006694,0.00004470,0.00004957,-0.00005410,0.00005999,-0
 .00004669,-0.00054066,0.00017339,0.00021308,-0.00014307,0.00009734,-0.
 00008143,-0.00009321,-0.00014304,-0.00005984,0.00007464,0.00004312,0.0
 0001103,-0.00000710,-0.00003908,0.00000270,-0.00000848,0.00001293,-0.0
 0000981,0.00000175,-0.00000238,0.00000637,-0.00000146,0.00000871,-0.00
 000126,-0.00000036,-0.00000525,-0.00000445,0.00000709,0.00001415,0.000
 00494,-0.00005428,-0.00035469,0.00006535,0.00062243,-0.00004835,0.0000
 2496,0.00002444,-0.00104453,-0.00038330,0.06632532,0.12990743,-0.15871
 117,-0.00018274,-0.00391533,0.00574278,0.00001949,0.00005804,-0.000016
 43,-0.00000865,0.00000643,-0.00003682,-0.00002805,-0.00002948,-0.00003
 255,-0.00044887,-0.00006747,-0.00040530,0.00037055,0.00081916,-0.00040
 533,-0.00003911,-0.00001575,-0.00002983,-0.00001032,0.00000412,0.00000
 172,0.00000252,0.00000567,-0.00000097,0.00000003,-0.00000069,0.0000006
 1,0.00000086,-0.00000394,0.00000111,0.00000059,0.00000405,0.00000056,-
 0.00000225,0.00000233,0.00000061,-0.00000553,0.00000064,-0.00000008,0.
 00000234,-0.00000288,0.00000026,-0.00000684,0.00001139,0.00000621,-0.0
 0000949,-0.00001087,-0.00000200,0.00000264,-0.00000314,0.00000127,-0.0
 0000193,0.00000130,-0.00000034,-0.00000031,0.00000242,0.00000072,0.000
 00212,0.00000159,0.00000111,-0.00000228,-0.00000276,-0.00000060,0.0000
 0766,0.00000661,0.00001150,-0.00034569,-0.00005045,-0.00066750,-0.0750
 3746,-0.14012260,0.16093365,-0.00195182,0.00026564,-0.00172426,-0.0032
 1634,0.00364030,0.00741973,0.00364527,-0.00094756,0.00355057,-0.000252
 59,-0.00045320,-0.00069468,0.00414593,0.00326394,0.00241683,0.00003953
 ,-0.00053224,0.00044313,-0.00010417,0.00009351,0.00001085,0.00012877,-
 0.00002216,-0.00003464,-0.00006033,0.00012443,0.00003984,-0.00001630,-
 0.00010675,-0.00000446,-0.00006819,0.00001803,-0.00001225,0.00004187,0
 .00000038,0.00000325,-0.00000315,0.00000216,-0.00000004,-0.00000677,-0
 .00000191,-0.00000011,-0.00000752,-0.00000350,-0.00000213,-0.00000596,
 0.00000711,-0.00000005,0.00000378,0.00000609,0.00000100,0.00000440,0.0
 0001087,0.00000025,-0.00002798,-0.00004215,-0.00001119,0.00005662,-0.0
 0006570,0.00002277,-0.00001534,0.00001741,0.00000953,-0.00001650,0.000
 02635,-0.00003265,0.00000688,0.00002073,-0.00003612,0.00007598,-0.0000
 6849,0.00001234,0.00004059,0.00006011,0.00001465,-0.00003042,-0.000029
 69,-0.00000820,-0.00000034,0.00000370,-0.00000123,0.00000823,0.0000049
 2,0.00000093,0.00000871,0.00000206,0.00000126,-0.00000019,0.00001081,0
 .00000010,-0.00000862,0.00000215,-0.00000072,-0.00000978,0.00000500,-0
 .00000046,-0.00005522,0.00012714,0.00000152,-0.00010792,-0.00010373,-0
 .00005167,0.00009555,0.00012566,-0.00006640,-0.00344055,0.00020591,0.0
 0787353,-0.17774811,0.04234117,0.14459190,-0.00019473,0.00028147,-0.00
 028115,0.00054381,-0.00070345,-0.00034716,0.00008572,-0.00016691,-0.00
 014830,-0.00030037,0.00015542,0.00028175,-0.00051673,-0.00012633,-0.00
 040791,0.00000717,0.00001053,-0.00001100,-0.00000751,0.00000284,0.0000
 0242,0.00000059,0.00000345,0.00000184,0.00000104,-0.00000110,0.0000014
 1,0.00000031,-0.00000255,0.00000023,0.00000049,0.00000218,0.00000095,-
 0.00000143,0.00000154,0.00000054,-0.00000352,0.00000030,0.00000031,0.0
 0000155,-0.00000196,0.00000111,-0.00000228,0.00000417,0.00000110,-0.00
 000220,-0.00000178,0.00000175,0.00000133,-0.00000276,0.00000069,-0.000
 00253,0.00000201,0.00000048,-0.00000007,0.00000240,0.00000079,0.000002
 55,0.00000250,0.00000083,-0.00000080,-0.00000248,0.00000048,0.00000410
 ,0.00000315,0.00000004,0.00000206,-0.00000896,0.00000025,-0.00194833,-
 0.00061628,-0.00241824,0.18118174,-0.00130301,0.00140093,0.00053408,-0
 .01492512,0.00728003,0.01559862,-0.00076030,-0.00270031,0.00386127,-0.
 00023745,-0.00122659,0.00035536,0.00264760,-0.00447167,0.00057233,0.00
 091843,0.00046657,-0.00076294,0.00000124,-0.00026844,-0.00002872,-0.00
 007228,-0.00002406,-0.00005627,0.00003255,-0.00006402,0.00000317,-0.00
 003581,0.00003660,0.00000581,0.00007350,-0.00001432,-0.00001314,-0.000
 03926,0.00000115,-0.00000474,0.00000532,-0.00000557,0.00000279,0.00000
 660,0.00000278,0.00000155,0.00000620,0.00000259,0.00000062,0.00000468,
 -0.00000522,0.00000016,-0.00000270,-0.00000566,-0.00000155,-0.00000503
 ,-0.00000765,-0.00000032,0.00014236,-0.00004724,0.00011226,0.00002272,
 0.00008135,-0.00001561,-0.00000433,-0.00001626,-0.00000890,-0.00000585
 ,-0.00002452,0.00002685,-0.00010730,0.00000231,0.00001601,-0.00006335,
 0.00006537,-0.00000114,-0.00005343,-0.00007332,-0.00001720,0.00004252,
 0.00002874,0.00000995,-0.00000266,-0.00000871,-0.00000174,-0.00000765,
 -0.00000147,-0.00000159,-0.00000788,-0.00000279,0.00000010,-0.00000018
 ,-0.00000904,-0.00000004,0.00000632,-0.00000285,0.00000064,0.00001251,
 -0.00000443,0.00000216,0.00002366,-0.00015146,0.00000869,0.00016194,0.
 00004534,0.00002032,-0.00009156,-0.00009657,-0.00000139,0.02021394,-0.
 00158124,-0.02084467,0.04204812,-0.06747510,-0.03768540,-0.00001785,0.
 00009679,0.00001535,0.00013738,-0.00023404,-0.00071099,0.00017364,-0.0
 0001893,-0.00021673,-0.00082987,0.00038519,0.00081144,-0.00011040,0.00
 001845,-0.00018559,-0.00000477,-0.00000558,0.00000844,0.00000693,-0.00
 000212,0.00000021,0.00000088,-0.00000251,-0.00000069,-0.00000151,0.000
 00079,-0.00000160,-0.00000062,0.00000194,-0.00000003,-0.00000023,-0.00
 000213,-0.00000065,0.00000109,-0.00000113,-0.00000023,0.00000241,-0.00
 000020,-0.00000007,-0.00000130,0.00000112,-0.00000017,0.00000221,-0.00
 000138,-0.00000106,-0.00000145,0.00000108,-0.00000288,-0.00000077,0.00
 000162,-0.00000047,0.00000146,-0.00000110,-0.00000041,0.00000004,-0.00
 000124,-0.00000069,-0.00000181,-0.00000246,-0.00000100,-0.00000092,0.0
 0000228,-0.00000120,-0.00000429,-0.00001583,-0.00000882,0.00002931,0.0
 0001527,-0.00005105,-0.00117870,0.00071575,-0.00035368,-0.04684592,0.0
 6792315,-0.00241139,-0.00161587,-0.00066652,0.01339968,-0.00645283,-0.
 00869700,0.00326793,0.00388507,0.00139462,-0.00082378,0.00046809,-0.00
 017096,0.00231134,0.00081901,0.00420763,0.00025959,0.00009873,0.000165
 51,-0.00003965,-0.00005012,-0.00006739,-0.00000540,-0.00003399,-0.0000
 3168,-0.00001856,-0.00000161,0.00002385,-0.00004973,-0.00000676,0.0000
 0415,0.00003485,-0.00000580,-0.00000317,-0.00002052,0.00000475,0.00000
 014,0.00000015,-0.00000098,-0.00000058,0.00000538,0.00000040,0.0000015
 4,0.00000463,0.00000243,0.00000021,0.00000334,-0.00000418,-0.00000015,
 -0.00000294,-0.00000409,-0.00000056,-0.00000171,-0.00000507,-0.0000013
 0,0.00007408,-0.00006773,0.00000839,0.00004195,0.00006046,0.00000743,-
 0.00000753,-0.00001709,-0.00001192,-0.00000908,-0.00001968,0.00000567,
 -0.00008480,0.00000929,-0.00001746,-0.00001701,0.00002815,0.00001686,-
 0.00003096,-0.00003467,-0.00000675,0.00002293,0.00001482,0.00000746,-0
 .00000184,-0.00000177,-0.00000429,-0.00000314,-0.00000107,-0.00000258,
 -0.00000572,-0.00000190,0.00000160,0.00000028,-0.00000616,-0.00000113,
 0.00000407,-0.00000088,0.00000124,0.00000821,-0.00000499,-0.00000034,-
 0.00000060,-0.00005627,0.00001952,0.00007309,-0.00004718,-0.00004044,0
 .00000570,-0.00001930,-0.00006662,0.00145969,0.00127537,0.00163543,0.1
 4502960,-0.03701673,-0.18881229,-0.00015931,0.00066670,-0.00025280,0.0
 0010384,0.00070177,-0.00003168,-0.00007836,-0.00025323,0.00029427,0.00
 063911,-0.00020288,-0.00055059,-0.00036752,-0.00017920,-0.00042185,-0.
 00001743,0.00001250,-0.00002807,0.00000264,0.00000040,-0.00000106,0.00
 000058,-0.00000173,-0.00000118,-0.00000235,-0.00000015,-0.00000010,-0.
 00000041,0.00000198,0.00000001,-0.00000035,-0.00000195,-0.00000025,0.0
 0000116,-0.00000127,-0.00000015,0.00000200,0.00000005,0.00000019,-0.00
 000159,0.00000042,-0.00000012,0.00000209,0.00000122,-0.00000021,-0.000
 00099,0.00000047,-0.00000170,-0.00000105,0.00000107,0.00000015,0.00000
 085,-0.00000036,-0.00000012,0.00000004,-0.00000102,-0.00000020,-0.0000
 0156,-0.00000202,-0.00000044,-0.00000095,0.00000192,0.,-0.00000230,-0.
 00001508,-0.00000432,0.00005849,-0.00000789,-0.00003340,-0.00223284,-0
 .00092678,-0.00143383,-0.16041593,0.03901521,0.19356930\\-0.00000195,-
 0.00000488,0.00000246,-0.00000581,0.00001052,0.00000281,0.00000577,-0.
 00001036,-0.00000685,-0.00000606,0.00000741,0.00000154,0.00000370,-0.0
 0000765,-0.00000102,-0.00001574,0.00000447,0.00000155,0.00001706,0.000
 00037,-0.00000558,-0.00000582,0.00000200,-0.00000015,0.00000533,-0.000
 00418,0.00000751,-0.00000063,0.00000390,-0.00000691,0.00000462,-0.0000
 0094,-0.00000448,-0.00000459,-0.00000381,-0.00000059,-0.00000094,-0.00
 000136,-0.00000090,-0.00000301,0.00000689,0.00000170,0.00000421,-0.000
 00123,-0.00000024,-0.00000149,-0.00000565,-0.00000089,-0.00000885,0.00
 000456,-0.00000030,0.00001554,-0.00000294,-0.00000006,-0.00000473,-0.0
 0000781,0.00000057,0.00000153,0.00001925,0.00000564,0.00000152,-0.0000
 0397,-0.00000567,0.00000112,-0.00000900,0.00000647,0.00000916,-0.00000
 718,0.00000184,-0.00000709,-0.00001087,-0.00000161,0.00001395,0.000003
 67,0.00000049,-0.00000798,0.00000330,0.00000132,-0.00000632,0.00000296
 ,-0.00000139,0.00001147,-0.00000619,0.00000160,-0.00000574,-0.00000255
 ,-0.00000105,0.00000206,-0.00000081,0.00000002,0.00000112,0.00000180,0
 .00000002,-0.00000244,-0.00000428,-0.00000147,-0.00000230,0.00001054,0
 .00000020,0.00000418,-0.00000512,-0.00000132,-0.00000993,0.00001017,0.
 00000019,-0.00000067,0.00000919,-0.00000074,0.00000213,-0.00000762,0.0
 0000273,0.00000069,0.00000123,-0.00000373,0.00000022,-0.00000007,0.000
 00087,0.00000156,0.00000167,-0.00000030,-0.00000049,0.00000198,0.00000
 086,0.00000060,0.00000031,-0.00000054,0.00000082,0.00000075,-0.0000000
 2,0.00000037,0.00000058,0.00000161,0.00000020,-0.00000050,-0.00000010,
 0.00000034,0.00000134,0.00000136,0.00000110,-0.00000190,0.00000060,-0.
 00000073,-0.00000023,0.00000006,0.00000057,0.00000199,0.00000023,0.000
 00139,0.00000068,0.00000013,-0.00000364,0.00000030,-0.00000014,-0.0000
 0264,-0.00000036,-0.00000228,0.00000006,-0.00000265,0.00000160,-0.0000
 0178,0.00000049,0.00000081,0.00000180,0.00000178,0.00000041,0.00000016
 ,0.00000080,0.00000021,-0.00000045,0.00000021,0.00000013,0.00000094,0.
 00000162,0.00000033,0.00000016,-0.00000084,-0.00000017,-0.00000232,-0.
 00000035,-0.00000057,-0.00000056,-0.00000129,0.00000113,-0.00000075,-0
 .00000011,0.00000004\\\@
 The archive entry for this job was punched.


 THERE IS NOTHING NOBLE IN BEING SUPERIOR TO SOME OTHER MAN.
 TRUE NOBILITY IS BEING SUPERIOR TO YOUR FORMER SELF.

                                                   -- HINDU PROVERB
 Job cpu time:       4 days  0 hours 37 minutes 33.6 seconds.
 Elapsed time:       0 days  3 hours 45 minutes 26.7 seconds.
 File lengths (MBytes):  RWF=   4544 Int=      0 D2E=      0 Chk=     89 Scr=      1
 Normal termination of Gaussian 16 at Tue Dec  5 23:58:42 2023.
