 Entering Gaussian System, Link 0=g16
 Input=/home/exlonk/in_progress/3531.inp
 Output=/home/exlonk/in_progress/3531.log
 Initial command:
 /opt/gaussian/g16-c01/g16/l1.exe "/lustre/tmp/slurm/2182797/Gau-333972.inp" -scrdir="/lustre/tmp/slurm/2182797/"
 Default CPUs for threads: 0-4,7-8,12-14,18-20,24-28,31-33,37-39,43-44
 Default is to use a total of  26 processors:
                               26 via shared-memory
                                1 via Linda
 Entering Link 1 = /opt/gaussian/g16-c01/g16/l1.exe PID=    333973.
  
 Copyright (c) 1988-2019, Gaussian, Inc.  All Rights Reserved.
  
 This is part of the Gaussian(R) 16 program.  It is based on
 the Gaussian(R) 09 system (copyright 2009, Gaussian, Inc.),
 the Gaussian(R) 03 system (copyright 2003, Gaussian, Inc.),
 the Gaussian(R) 98 system (copyright 1998, Gaussian, Inc.),
 the Gaussian(R) 94 system (copyright 1995, Gaussian, Inc.),
 the Gaussian 92(TM) system (copyright 1992, Gaussian, Inc.),
 the Gaussian 90(TM) system (copyright 1990, Gaussian, Inc.),
 the Gaussian 88(TM) system (copyright 1988, Gaussian, Inc.),
 the Gaussian 86(TM) system (copyright 1986, Carnegie Mellon
 University), and the Gaussian 82(TM) system (copyright 1983,
 Carnegie Mellon University). Gaussian is a federally registered
 trademark of Gaussian, Inc.
  
 This software contains proprietary and confidential information,
 including trade secrets, belonging to Gaussian, Inc.
  
 This software is provided under written license and may be
 used, copied, transmitted, or stored only in accord with that
 written license.
  
 The following legend is applicable only to US Government
 contracts under FAR:
  
                    RESTRICTED RIGHTS LEGEND
  
 Use, reproduction and disclosure by the US Government is
 subject to restrictions as set forth in subparagraphs (a)
 and (c) of the Commercial Computer Software - Restricted
 Rights clause in FAR 52.227-19.
  
 Gaussian, Inc.
 340 Quinnipiac St., Bldg. 40, Wallingford CT 06492
  
  
 ---------------------------------------------------------------
 Warning -- This program may not be used in any manner that
 competes with the business of Gaussian, Inc. or will provide
 assistance to any competitor of Gaussian, Inc.  The licensee
 of this program is prohibited from giving any competitor of
 Gaussian, Inc. access to this program.  By using this program,
 the user acknowledges that Gaussian, Inc. is engaged in the
 business of creating and licensing software in the field of
 computational chemistry and represents and warrants to the
 licensee that it is not a competitor of Gaussian, Inc. and that
 it will not use this program in any manner prohibited above.
 ---------------------------------------------------------------
  

 Cite this work as:
 Gaussian 16, Revision C.01,
 M. J. Frisch, G. W. Trucks, H. B. Schlegel, G. E. Scuseria, 
 M. A. Robb, J. R. Cheeseman, G. Scalmani, V. Barone, 
 G. A. Petersson, H. Nakatsuji, X. Li, M. Caricato, A. V. Marenich, 
 J. Bloino, B. G. Janesko, R. Gomperts, B. Mennucci, H. P. Hratchian, 
 J. V. Ortiz, A. F. Izmaylov, J. L. Sonnenberg, D. Williams-Young, 
 F. Ding, F. Lipparini, F. Egidi, J. Goings, B. Peng, A. Petrone, 
 T. Henderson, D. Ranasinghe, V. G. Zakrzewski, J. Gao, N. Rega, 
 G. Zheng, W. Liang, M. Hada, M. Ehara, K. Toyota, R. Fukuda, 
 J. Hasegawa, M. Ishida, T. Nakajima, Y. Honda, O. Kitao, H. Nakai, 
 T. Vreven, K. Throssell, J. A. Montgomery, Jr., J. E. Peralta, 
 F. Ogliaro, M. J. Bearpark, J. J. Heyd, E. N. Brothers, K. N. Kudin, 
 V. N. Staroverov, T. A. Keith, R. Kobayashi, J. Normand, 
 K. Raghavachari, A. P. Rendell, J. C. Burant, S. S. Iyengar, 
 J. Tomasi, M. Cossi, J. M. Millam, M. Klene, C. Adamo, R. Cammi, 
 J. W. Ochterski, R. L. Martin, K. Morokuma, O. Farkas, 
 J. B. Foresman, and D. J. Fox, Gaussian, Inc., Wallingford CT, 2019.
 
 ******************************************
 Gaussian 16:  EM64L-G16RevC.01  3-Jul-2019
                 5-Dec-2023 
 ******************************************
 %nproc=26
 Will use up to   26 processors via shared memory.
 %mem=16GB
 %chk=/home/exlonk/in_progress/3531.chk
 ------------------------------
 #p MN15/6-311++G(d,p) opt freq
 ------------------------------
 1/18=20,19=15,26=3,38=1/1,3;
 2/9=110,12=2,17=6,18=5,40=1/2;
 3/5=4,6=6,7=1111,11=2,25=1,30=1,71=1,74=-73/1,2,3;
 4//1;
 5/5=2,38=5/2;
 6/7=2,8=2,9=2,10=2,28=1/1;
 7//1,2,3,16;
 1/18=20,19=15,26=3/3(2);
 2/9=110/2;
 99//99;
 2/9=110/2;
 3/5=4,6=6,7=1111,11=2,25=1,30=1,71=1,74=-73/1,2,3;
 4/5=5,16=3,69=1/1;
 5/5=2,38=5/2;
 7//1,2,3,16;
 1/18=20,19=15,26=3/3(-5);
 2/9=110/2;
 6/7=2,8=2,9=2,10=2,19=2,28=1/1;
 99/9=1/99;
 Leave Link    1 at Tue Dec  5 09:30:33 2023, MaxMem=  2147483648 cpu:              11.8 elap:               0.5
 (Enter /opt/gaussian/g16-c01/g16/l101.exe)
 ---------------
 name file: 3531
 ---------------
 Symbolic Z-matrix:
 Charge =  0 Multiplicity = 1
 O                    -0.0048   -2.6694   -0.8946 
 O                    -0.0021   -2.6143    1.4067 
 N                     0.0027    2.1693   -0.1449 
 C                    -1.2142    0.106     0.0807 
 C                     1.2151    0.1034    0.0805 
 C                    -0.0003   -0.5844    0.1558 
 C                    -1.1652    1.5019   -0.0718 
 C                     1.1691    1.4995   -0.0719 
 C                    -2.4502   -0.5597    0.1538 
 C                     2.4498   -0.5649    0.1535 
 C                    -2.3705    2.195    -0.1473 
 C                     2.3758    2.19     -0.1476 
 C                    -0.002    -2.0424    0.3164 
 C                    -3.6409    0.1565    0.0759 
 C                     3.6421    0.1488    0.0753 
 C                    -3.6006    1.5366   -0.075 
 C                     3.6045    1.529    -0.0756 
 C                    -0.0081   -4.1008   -0.8698 
 H                    -2.5177   -1.6381    0.2718 
 H                     2.515    -1.6435    0.2714 
 H                    -2.3654    3.277    -0.2655 
 H                     2.3728    3.2721   -0.2657 
 H                    -4.5943   -0.3599    0.1326 
 H                     4.5944   -0.3695    0.1318 
 H                    -4.524     2.105    -0.1368 
 H                     4.529     2.0956   -0.1376 
 H                    -0.0101   -4.4591   -1.9026 
 H                    -0.9085   -4.4673   -0.3679 
 H                     0.8917   -4.4715   -0.3699 
 
 ITRead=  0  0  0  0  0  0  0  0  0  0  0  0  0  0  0  0  0  0  0  0
 ITRead=  0  0  0  0  0  0  0  0  0
 MicOpt= -1 -1 -1 -1 -1 -1 -1 -1 -1 -1 -1 -1 -1 -1 -1 -1 -1 -1 -1 -1
 MicOpt= -1 -1 -1 -1 -1 -1 -1 -1 -1
 NAtoms=     29 NQM=       29 NQMF=       0 NMMI=      0 NMMIF=      0
                NMic=       0 NMicF=      0.
                    Isotopes and Nuclear Properties:
 (Nuclear quadrupole moments (NQMom) in fm**2, nuclear magnetic moments (NMagM)
  in nuclear magnetons)

  Atom         1           2           3           4           5           6           7           8           9          10
 IAtWgt=          16          16          14          12          12          12          12          12          12          12
 AtmWgt=  15.9949146  15.9949146  14.0030740  12.0000000  12.0000000  12.0000000  12.0000000  12.0000000  12.0000000  12.0000000
 NucSpn=           0           0           2           0           0           0           0           0           0           0
 AtZEff=  -0.0000000  -0.0000000  -0.0000000  -0.0000000  -0.0000000  -0.0000000  -0.0000000  -0.0000000  -0.0000000  -0.0000000
 NQMom=    0.0000000   0.0000000   2.0440000   0.0000000   0.0000000   0.0000000   0.0000000   0.0000000   0.0000000   0.0000000
 NMagM=    0.0000000   0.0000000   0.4037610   0.0000000   0.0000000   0.0000000   0.0000000   0.0000000   0.0000000   0.0000000
 AtZNuc=   8.0000000   8.0000000   7.0000000   6.0000000   6.0000000   6.0000000   6.0000000   6.0000000   6.0000000   6.0000000

  Atom        11          12          13          14          15          16          17          18          19          20
 IAtWgt=          12          12          12          12          12          12          12          12           1           1
 AtmWgt=  12.0000000  12.0000000  12.0000000  12.0000000  12.0000000  12.0000000  12.0000000  12.0000000   1.0078250   1.0078250
 NucSpn=           0           0           0           0           0           0           0           0           1           1
 AtZEff=  -0.0000000  -0.0000000  -0.0000000  -0.0000000  -0.0000000  -0.0000000  -0.0000000  -0.0000000  -0.0000000  -0.0000000
 NQMom=    0.0000000   0.0000000   0.0000000   0.0000000   0.0000000   0.0000000   0.0000000   0.0000000   0.0000000   0.0000000
 NMagM=    0.0000000   0.0000000   0.0000000   0.0000000   0.0000000   0.0000000   0.0000000   0.0000000   2.7928460   2.7928460
 AtZNuc=   6.0000000   6.0000000   6.0000000   6.0000000   6.0000000   6.0000000   6.0000000   6.0000000   1.0000000   1.0000000

  Atom        21          22          23          24          25          26          27          28          29
 IAtWgt=           1           1           1           1           1           1           1           1           1
 AtmWgt=   1.0078250   1.0078250   1.0078250   1.0078250   1.0078250   1.0078250   1.0078250   1.0078250   1.0078250
 NucSpn=           1           1           1           1           1           1           1           1           1
 AtZEff=  -0.0000000  -0.0000000  -0.0000000  -0.0000000  -0.0000000  -0.0000000  -0.0000000  -0.0000000  -0.0000000
 NQMom=    0.0000000   0.0000000   0.0000000   0.0000000   0.0000000   0.0000000   0.0000000   0.0000000   0.0000000
 NMagM=    2.7928460   2.7928460   2.7928460   2.7928460   2.7928460   2.7928460   2.7928460   2.7928460   2.7928460
 AtZNuc=   1.0000000   1.0000000   1.0000000   1.0000000   1.0000000   1.0000000   1.0000000   1.0000000   1.0000000
 Leave Link  101 at Tue Dec  5 09:30:34 2023, MaxMem=  2147483648 cpu:               6.6 elap:               0.4
 (Enter /opt/gaussian/g16-c01/g16/l103.exe)

 GradGradGradGradGradGradGradGradGradGradGradGradGradGradGradGradGradGrad
 Berny optimization.
 Initialization pass.
                           ----------------------------
                           !    Initial Parameters    !
                           ! (Angstroms and Degrees)  !
 --------------------------                            --------------------------
 ! Name  Definition              Value          Derivative Info.                !
 --------------------------------------------------------------------------------
 ! R1    R(1,13)                 1.3637         estimate D2E/DX2                !
 ! R2    R(1,18)                 1.4316         estimate D2E/DX2                !
 ! R3    R(2,13)                 1.2312         estimate D2E/DX2                !
 ! R4    R(3,7)                  1.3471         estimate D2E/DX2                !
 ! R5    R(3,8)                  1.347          estimate D2E/DX2                !
 ! R6    R(4,6)                  1.3985         estimate D2E/DX2                !
 ! R7    R(4,7)                  1.4051         estimate D2E/DX2                !
 ! R8    R(4,9)                  1.4058         estimate D2E/DX2                !
 ! R9    R(5,6)                  1.3985         estimate D2E/DX2                !
 ! R10   R(5,8)                  1.4051         estimate D2E/DX2                !
 ! R11   R(5,10)                 1.4059         estimate D2E/DX2                !
 ! R12   R(6,13)                 1.4668         estimate D2E/DX2                !
 ! R13   R(7,11)                 1.3924         estimate D2E/DX2                !
 ! R14   R(8,12)                 1.3924         estimate D2E/DX2                !
 ! R15   R(9,14)                 1.3917         estimate D2E/DX2                !
 ! R16   R(9,19)                 1.0869         estimate D2E/DX2                !
 ! R17   R(10,15)                1.3918         estimate D2E/DX2                !
 ! R18   R(10,20)                1.087          estimate D2E/DX2                !
 ! R19   R(11,16)                1.3971         estimate D2E/DX2                !
 ! R20   R(11,21)                1.0884         estimate D2E/DX2                !
 ! R21   R(12,17)                1.3971         estimate D2E/DX2                !
 ! R22   R(12,22)                1.0885         estimate D2E/DX2                !
 ! R23   R(14,16)                1.3889         estimate D2E/DX2                !
 ! R24   R(14,23)                1.0858         estimate D2E/DX2                !
 ! R25   R(15,17)                1.3889         estimate D2E/DX2                !
 ! R26   R(15,24)                1.0857         estimate D2E/DX2                !
 ! R27   R(16,25)                1.0861         estimate D2E/DX2                !
 ! R28   R(17,26)                1.0861         estimate D2E/DX2                !
 ! R29   R(18,27)                1.0932         estimate D2E/DX2                !
 ! R30   R(18,28)                1.0941         estimate D2E/DX2                !
 ! R31   R(18,29)                1.0941         estimate D2E/DX2                !
 ! A1    A(13,1,18)            116.3806         estimate D2E/DX2                !
 ! A2    A(7,3,8)              120.094          estimate D2E/DX2                !
 ! A3    A(6,4,7)              117.7753         estimate D2E/DX2                !
 ! A4    A(6,4,9)              121.776          estimate D2E/DX2                !
 ! A5    A(7,4,9)              120.4487         estimate D2E/DX2                !
 ! A6    A(6,5,8)              117.7762         estimate D2E/DX2                !
 ! A7    A(6,5,10)             121.7802         estimate D2E/DX2                !
 ! A8    A(8,5,10)             120.4436         estimate D2E/DX2                !
 ! A9    A(4,6,5)              120.5739         estimate D2E/DX2                !
 ! A10   A(4,6,13)             119.7075         estimate D2E/DX2                !
 ! A11   A(5,6,13)             119.7186         estimate D2E/DX2                !
 ! A12   A(3,7,4)              121.8919         estimate D2E/DX2                !
 ! A13   A(3,7,11)             120.0596         estimate D2E/DX2                !
 ! A14   A(4,7,11)             118.0485         estimate D2E/DX2                !
 ! A15   A(3,8,5)              121.8887         estimate D2E/DX2                !
 ! A16   A(3,8,12)             120.0604         estimate D2E/DX2                !
 ! A17   A(5,8,12)             118.0509         estimate D2E/DX2                !
 ! A18   A(4,9,14)             120.3741         estimate D2E/DX2                !
 ! A19   A(4,9,19)             122.0106         estimate D2E/DX2                !
 ! A20   A(14,9,19)            117.6153         estimate D2E/DX2                !
 ! A21   A(5,10,15)            120.3772         estimate D2E/DX2                !
 ! A22   A(5,10,20)            122.0064         estimate D2E/DX2                !
 ! A23   A(15,10,20)           117.6164         estimate D2E/DX2                !
 ! A24   A(7,11,16)            121.6524         estimate D2E/DX2                !
 ! A25   A(7,11,21)            119.7786         estimate D2E/DX2                !
 ! A26   A(16,11,21)           118.5691         estimate D2E/DX2                !
 ! A27   A(8,12,17)            121.6531         estimate D2E/DX2                !
 ! A28   A(8,12,22)            119.769          estimate D2E/DX2                !
 ! A29   A(17,12,22)           118.5779         estimate D2E/DX2                !
 ! A30   A(1,13,2)             124.9483         estimate D2E/DX2                !
 ! A31   A(1,13,6)             111.0873         estimate D2E/DX2                !
 ! A32   A(2,13,6)             123.9644         estimate D2E/DX2                !
 ! A33   A(9,14,16)            119.513          estimate D2E/DX2                !
 ! A34   A(9,14,23)            120.2385         estimate D2E/DX2                !
 ! A35   A(16,14,23)           120.2485         estimate D2E/DX2                !
 ! A36   A(10,15,17)           119.504          estimate D2E/DX2                !
 ! A37   A(10,15,24)           120.2447         estimate D2E/DX2                !
 ! A38   A(17,15,24)           120.2513         estimate D2E/DX2                !
 ! A39   A(11,16,14)           119.9633         estimate D2E/DX2                !
 ! A40   A(11,16,25)           119.9345         estimate D2E/DX2                !
 ! A41   A(14,16,25)           120.1022         estimate D2E/DX2                !
 ! A42   A(12,17,15)           119.9712         estimate D2E/DX2                !
 ! A43   A(12,17,26)           119.9249         estimate D2E/DX2                !
 ! A44   A(15,17,26)           120.1038         estimate D2E/DX2                !
 ! A45   A(1,18,27)            108.1403         estimate D2E/DX2                !
 ! A46   A(1,18,28)            110.1688         estimate D2E/DX2                !
 ! A47   A(1,18,29)            110.1695         estimate D2E/DX2                !
 ! A48   A(27,18,28)           108.7906         estimate D2E/DX2                !
 ! A49   A(27,18,29)           108.792          estimate D2E/DX2                !
 ! A50   A(28,18,29)           110.7167         estimate D2E/DX2                !
 ! D1    D(18,1,13,2)            0.0012         estimate D2E/DX2                !
 ! D2    D(18,1,13,6)         -179.9367         estimate D2E/DX2                !
 ! D3    D(13,1,18,27)         179.9988         estimate D2E/DX2                !
 ! D4    D(13,1,18,28)          61.2192         estimate D2E/DX2                !
 ! D5    D(13,1,18,29)         -61.2195         estimate D2E/DX2                !
 ! D6    D(8,3,7,4)             -0.001          estimate D2E/DX2                !
 ! D7    D(8,3,7,11)           179.9981         estimate D2E/DX2                !
 ! D8    D(7,3,8,5)              0.0061         estimate D2E/DX2                !
 ! D9    D(7,3,8,12)           179.9967         estimate D2E/DX2                !
 ! D10   D(7,4,6,5)              0.0073         estimate D2E/DX2                !
 ! D11   D(7,4,6,13)           179.9406         estimate D2E/DX2                !
 ! D12   D(9,4,6,5)           -179.9901         estimate D2E/DX2                !
 ! D13   D(9,4,6,13)            -0.0568         estimate D2E/DX2                !
 ! D14   D(6,4,7,3)             -0.0056         estimate D2E/DX2                !
 ! D15   D(6,4,7,11)           179.9952         estimate D2E/DX2                !
 ! D16   D(9,4,7,3)            179.9918         estimate D2E/DX2                !
 ! D17   D(9,4,7,11)            -0.0073         estimate D2E/DX2                !
 ! D18   D(6,4,9,14)           179.9988         estimate D2E/DX2                !
 ! D19   D(6,4,9,19)             0.0083         estimate D2E/DX2                !
 ! D20   D(7,4,9,14)             0.0014         estimate D2E/DX2                !
 ! D21   D(7,4,9,19)          -179.989          estimate D2E/DX2                !
 ! D22   D(8,5,6,4)             -0.0026         estimate D2E/DX2                !
 ! D23   D(8,5,6,13)          -179.9359         estimate D2E/DX2                !
 ! D24   D(10,5,6,4)           179.9849         estimate D2E/DX2                !
 ! D25   D(10,5,6,13)            0.0516         estimate D2E/DX2                !
 ! D26   D(6,5,8,3)             -0.0043         estimate D2E/DX2                !
 ! D27   D(6,5,8,12)          -179.9951         estimate D2E/DX2                !
 ! D28   D(10,5,8,3)          -179.992          estimate D2E/DX2                !
 ! D29   D(10,5,8,12)            0.0173         estimate D2E/DX2                !
 ! D30   D(6,5,10,15)          179.9967         estimate D2E/DX2                !
 ! D31   D(6,5,10,20)            0.0031         estimate D2E/DX2                !
 ! D32   D(8,5,10,15)           -0.0161         estimate D2E/DX2                !
 ! D33   D(8,5,10,20)          179.9903         estimate D2E/DX2                !
 ! D34   D(4,6,13,1)            89.944          estimate D2E/DX2                !
 ! D35   D(4,6,13,2)           -89.9947         estimate D2E/DX2                !
 ! D36   D(5,6,13,1)           -90.1221         estimate D2E/DX2                !
 ! D37   D(5,6,13,2)            89.9392         estimate D2E/DX2                !
 ! D38   D(3,7,11,16)         -179.9917         estimate D2E/DX2                !
 ! D39   D(3,7,11,21)            0.0008         estimate D2E/DX2                !
 ! D40   D(4,7,11,16)            0.0074         estimate D2E/DX2                !
 ! D41   D(4,7,11,21)          179.9999         estimate D2E/DX2                !
 ! D42   D(3,8,12,17)         -179.9987         estimate D2E/DX2                !
 ! D43   D(3,8,12,22)            0.011          estimate D2E/DX2                !
 ! D44   D(5,8,12,17)           -0.0078         estimate D2E/DX2                !
 ! D45   D(5,8,12,22)         -179.9981         estimate D2E/DX2                !
 ! D46   D(4,9,14,16)            0.0046         estimate D2E/DX2                !
 ! D47   D(4,9,14,23)          179.9998         estimate D2E/DX2                !
 ! D48   D(19,9,14,16)         179.9955         estimate D2E/DX2                !
 ! D49   D(19,9,14,23)          -0.0093         estimate D2E/DX2                !
 ! D50   D(5,10,15,17)           0.0049         estimate D2E/DX2                !
 ! D51   D(5,10,15,24)        -179.993          estimate D2E/DX2                !
 ! D52   D(20,10,15,17)        179.9988         estimate D2E/DX2                !
 ! D53   D(20,10,15,24)          0.0009         estimate D2E/DX2                !
 ! D54   D(7,11,16,14)          -0.0015         estimate D2E/DX2                !
 ! D55   D(7,11,16,25)         179.992          estimate D2E/DX2                !
 ! D56   D(21,11,16,14)       -179.9941         estimate D2E/DX2                !
 ! D57   D(21,11,16,25)         -0.0006         estimate D2E/DX2                !
 ! D58   D(8,12,17,15)          -0.0031         estimate D2E/DX2                !
 ! D59   D(8,12,17,26)        -179.9937         estimate D2E/DX2                !
 ! D60   D(22,12,17,15)        179.9872         estimate D2E/DX2                !
 ! D61   D(22,12,17,26)         -0.0033         estimate D2E/DX2                !
 ! D62   D(9,14,16,11)          -0.0046         estimate D2E/DX2                !
 ! D63   D(9,14,16,25)        -179.9981         estimate D2E/DX2                !
 ! D64   D(23,14,16,11)       -179.9998         estimate D2E/DX2                !
 ! D65   D(23,14,16,25)          0.0068         estimate D2E/DX2                !
 ! D66   D(10,15,17,12)          0.0047         estimate D2E/DX2                !
 ! D67   D(10,15,17,26)        179.9952         estimate D2E/DX2                !
 ! D68   D(24,15,17,12)       -179.9975         estimate D2E/DX2                !
 ! D69   D(24,15,17,26)         -0.0069         estimate D2E/DX2                !
 --------------------------------------------------------------------------------
 Trust Radius=3.00D-01 FncErr=1.00D-07 GrdErr=1.00D-06 EigMax=2.50D+02 EigMin=1.00D-04
 Number of steps in this run=    160 maximum allowed number of steps=    174.
 GradGradGradGradGradGradGradGradGradGradGradGradGradGradGradGradGradGrad

 Leave Link  103 at Tue Dec  5 09:30:34 2023, MaxMem=  2147483648 cpu:               3.2 elap:               0.2
 (Enter /opt/gaussian/g16-c01/g16/l202.exe)
                          Input orientation:                          
 ---------------------------------------------------------------------
 Center     Atomic      Atomic             Coordinates (Angstroms)
 Number     Number       Type             X           Y           Z
 ---------------------------------------------------------------------
      1          8           0       -0.004800   -2.669400   -0.894600
      2          8           0       -0.002100   -2.614300    1.406700
      3          7           0        0.002700    2.169300   -0.144900
      4          6           0       -1.214200    0.106000    0.080700
      5          6           0        1.215100    0.103400    0.080500
      6          6           0       -0.000300   -0.584400    0.155800
      7          6           0       -1.165200    1.501900   -0.071800
      8          6           0        1.169100    1.499500   -0.071900
      9          6           0       -2.450200   -0.559700    0.153800
     10          6           0        2.449800   -0.564900    0.153500
     11          6           0       -2.370500    2.195000   -0.147300
     12          6           0        2.375800    2.190000   -0.147600
     13          6           0       -0.002000   -2.042400    0.316400
     14          6           0       -3.640900    0.156500    0.075900
     15          6           0        3.642100    0.148800    0.075300
     16          6           0       -3.600600    1.536600   -0.075000
     17          6           0        3.604500    1.529000   -0.075600
     18          6           0       -0.008100   -4.100800   -0.869800
     19          1           0       -2.517700   -1.638100    0.271800
     20          1           0        2.515000   -1.643500    0.271400
     21          1           0       -2.365400    3.277000   -0.265500
     22          1           0        2.372800    3.272100   -0.265700
     23          1           0       -4.594300   -0.359900    0.132600
     24          1           0        4.594400   -0.369500    0.131800
     25          1           0       -4.524000    2.105000   -0.136800
     26          1           0        4.529000    2.095600   -0.137600
     27          1           0       -0.010100   -4.459100   -1.902600
     28          1           0       -0.908500   -4.467300   -0.367900
     29          1           0        0.891700   -4.471500   -0.369900
 ---------------------------------------------------------------------
                    Distance matrix (angstroms):
                    1          2          3          4          5
     1  O    0.000000
     2  O    2.301961   0.000000
     3  N    4.896440   5.028948   0.000000
     4  C    3.180677   3.259984   2.406023   0.000000
     5  C    3.182357   3.259797   2.405964   2.429301   0.000000
     6  C    2.334649   2.384376   2.770071   1.398515   1.398548
     7  C    4.407184   4.525690   1.347129   1.405060   2.764928
     8  C    4.408470   4.525629   1.347015   2.765004   1.405147
     9  C    3.395579   3.432832   3.681492   1.405772   3.725520
    10  C    3.398896   3.432545   3.681466   3.725628   1.405858
    11  C    5.460529   5.581541   2.373340   2.398528   4.157308
    12  C    5.462512   5.581358   2.373192   4.157316   2.398573
    13  C    1.363693   1.231188   4.236890   2.478025   2.478193
    14  C    4.706252   4.763321   4.168445   2.427230   4.856292
    15  C    4.709866   4.763144   4.168470   4.856492   2.427430
    16  C    5.593922   5.689869   3.659094   2.786712   5.026849
    17  C    5.596818   5.689614   3.658927   5.026851   2.786743
    18  C    1.431619   2.718855   6.311874   4.478314   4.480467
    19  H    2.956135   2.927321   4.585014   2.185753   4.123495
    20  H    2.959969   2.926970   4.585019   4.123597   2.185828
    21  H    6.428676   6.564210   2.617144   3.391218   4.797023
    22  H    6.430390   6.564052   2.616894   4.796952   3.391280
    23  H    5.239508   5.271997   5.254167   3.412453   5.828078
    24  H    5.243632   5.271841   5.254120   5.828254   3.412614
    25  H    6.617577   6.715785   4.527164   3.872736   6.082014
    26  H    6.620696   6.715571   4.526906   6.081982   3.872772
    27  H    2.054049   3.788775   6.857504   5.120886   5.123496
    28  H    2.080031   2.721098   6.702572   4.605406   5.059846
    29  H    2.080045   2.721099   6.703818   5.058791   4.608379
                    6          7          8          9         10
     6  C    0.000000
     7  C    2.400300   0.000000
     8  C    2.400413   2.334301   0.000000
     9  C    2.450025   2.439737   4.170201   0.000000
    10  C    2.450179   4.170210   2.439825   4.900003   0.000000
    11  C    3.665349   1.392421   3.608071   2.772253   5.562627
    12  C    3.665406   3.608034   1.392353   5.562550   2.772293
    13  C    1.466819   3.750439   3.750641   2.866796   2.867205
    14  C    3.716085   2.821526   4.996158   1.391681   6.133764
    15  C    3.716334   4.996264   2.821664   6.133861   1.391784
    16  C    4.184981   2.435649   4.769845   2.402133   6.409045
    17  C    4.185043   4.769779   2.435581   6.408953   2.402132
    18  C    3.662920   5.776325   5.778045   4.421651   4.426173
    19  H    2.731491   3.436119   4.853366   1.086935   5.083484
    20  H    2.731628   4.853370   3.436241   5.083470   1.086982
    21  H    4.547703   2.151506   3.961020   3.860475   6.174294
    22  H    4.547731   3.960890   2.151410   6.174140   3.860599
    23  H    4.599541   3.907276   6.059370   2.153494   7.047113
    24  H    4.599785   6.059421   3.907344   7.047202   2.153593
    25  H    5.270896   3.413135   5.725577   3.389059   7.473053
    26  H    5.270962   5.725445   3.413002   7.472935   3.389111
    27  H    4.387529   6.341893   6.344044   5.038669   5.044150
    28  H    4.021940   5.982050   6.325088   4.233007   5.174820
    29  H    4.022632   6.324651   5.984864   5.171531   4.238295
                   11         12         13         14         15
    11  C    0.000000
    12  C    4.746303   0.000000
    13  C    4.876512   4.876724   0.000000
    14  C    2.412305   6.354979   4.258473   0.000000
    15  C    6.355143   2.412405   4.258985   7.283004   0.000000
    16  C    1.397091   6.012450   5.090418   1.388910   7.375994
    17  C    6.012431   1.397071   5.090717   7.375807   1.388934
    18  C    6.763138   6.765997   2.375735   5.675931   5.681221
    19  H    3.858752   6.227085   2.548371   2.126157   6.416756
    20  H    6.227158   3.858842   2.548811   6.416644   2.126299
    21  H    1.088449   4.865639   5.849811   3.388359   6.781728
    22  H    4.865497   1.088530   5.849994   6.781463   3.388570
    23  H    3.398697   7.427166   4.894263   1.085751   8.252293
    24  H    7.427273   3.398719   4.894851   8.252270   1.085681
    25  H    2.155405   6.900332   6.152626   2.149828   8.399815
    26  H    6.900223   2.155292   6.152977   8.399581   2.149872
    27  H    7.275274   7.278947   3.280924   6.196849   6.203499
    28  H    6.824394   7.426628   2.677713   5.389109   6.497135
    29  H    7.425209   6.828437   2.677729   6.493195   5.395375
                   16         17         18         19         20
    16  C    0.000000
    17  C    7.205104   0.000000
    18  C    6.731868   6.736192   0.000000
    19  H    3.372190   6.901633   3.696787   0.000000
    20  H    6.901709   3.372266   3.702255   5.032703   0.000000
    21  H    2.142662   6.223445   7.768782   4.946726   6.951107
    22  H    6.223330   2.142807   7.771311   6.950968   4.946900
    23  H    2.151104   8.416152   6.002697   2.442425   7.225582
    24  H    8.416294   2.151097   6.009061   7.225712   2.442636
    25  H    1.086078   8.149112   7.709902   4.266496   7.985324
    26  H    8.149037   1.086085   7.714711   7.985243   4.266655
    27  H    7.223588   7.229150   1.093187   4.355929   4.362340
    28  H    6.586350   7.510541   1.094050   3.317094   4.483626
    29  H    7.507662   6.591805   1.094056   4.479279   3.323244
                   21         22         23         24         25
    21  H    0.000000
    22  H    4.738203   0.000000
    23  H    4.284101   7.867055   0.000000
    24  H    7.867250   4.284246   9.188705   0.000000
    25  H    2.459614   6.996041   2.480575   9.452011   0.000000
    26  H    6.996057   2.459626   9.451830   2.480639   9.053005
    27  H    8.250744   8.254036   6.477682   6.485756   8.159703
    28  H    7.880814   8.406883   5.541332   6.879213   7.504690
    29  H    8.405882   7.884660   6.874151   5.548702   8.522587
                   26         27         28         29
    26  H    0.000000
    27  H    8.165950   0.000000
    28  H    8.525908   1.778340   0.000000
    29  H    7.510707   1.778361   1.800206   0.000000
 Stoichiometry    C15H11NO2
 Framework group  C1[X(C15H11NO2)]
 Deg. of freedom    81
 Full point group                 C1      NOp   1
 Largest Abelian subgroup         C1      NOp   1
 Largest concise Abelian subgroup C1      NOp   1
                         Standard orientation:                         
 ---------------------------------------------------------------------
 Center     Atomic      Atomic             Coordinates (Angstroms)
 Number     Number       Type             X           Y           Z
 ---------------------------------------------------------------------
      1          8           0        0.006416    2.558274   -0.850016
      2          8           0        0.003609    2.475777    1.450465
      3          7           0       -0.004539   -2.289003   -0.157986
      4          6           0        1.213818   -0.229400    0.092192
      5          6           0       -1.215480   -0.225074    0.091972
      6          6           0        0.000406    0.460918    0.175482
      7          6           0        1.163832   -1.623350   -0.076920
      8          6           0       -1.170466   -1.619292   -0.077040
      9          6           0        2.450288    0.434505    0.173240
     10          6           0       -2.449707    0.443186    0.172899
     11          6           0        2.368642   -2.316357   -0.160642
     12          6           0       -2.377653   -2.307985   -0.160983
     13          6           0        0.003135    1.916901    0.353432
     14          6           0        3.640482   -0.281562    0.086842
     15          6           0       -3.642511   -0.268686    0.086181
     16          6           0        3.599207   -1.659738   -0.080482
     17          6           0       -3.605886   -1.647018   -0.081143
     18          6           0        0.010731    3.989275   -0.808173
     19          1           0        2.518549    1.511375    0.304074
     20          1           0       -2.514146    1.520351    0.303633
     21          1           0        2.362778   -3.396869   -0.291718
     22          1           0       -2.375417   -3.388604   -0.291959
     23          1           0        4.594246    0.233449    0.149707
     24          1           0       -4.594445    0.249580    0.148829
     25          1           0        4.522205   -2.228017   -0.149026
     26          1           0       -4.530786   -2.212183   -0.149904
     27          1           0        0.013015    4.359846   -1.836633
     28          1           0        0.911376    4.349133   -0.301925
     29          1           0       -0.888821    4.354634   -0.303913
 ---------------------------------------------------------------------
 Rotational constants (GHZ):           0.5406382           0.4402832           0.2578245
 Leave Link  202 at Tue Dec  5 09:30:34 2023, MaxMem=  2147483648 cpu:               3.6 elap:               0.2
 (Enter /opt/gaussian/g16-c01/g16/l301.exe)
 Standard basis: 6-311++G(d,p) (5D, 7F)
 Ernie: Thresh=  0.10000D-02 Tol=  0.10000D-05 Strict=F.
 There are   491 symmetry adapted cartesian basis functions of A   symmetry.
 There are   473 symmetry adapted basis functions of A   symmetry.
   473 basis functions,   747 primitive gaussians,   491 cartesian basis functions
    62 alpha electrons       62 beta electrons
       nuclear repulsion energy      1230.1764537788 Hartrees.
 IExCor= 7252 DFT=T Ex+Corr=MN15 ExCW=0 ScaHFX=  0.440000
 ScaDFX=  1.000000  1.000000  1.000000  1.000000 ScalE2=  1.000000  1.000000
 IRadAn=      5 IRanWt=     -1 IRanGd=            0 ICorTp=0 IEmpDi=  4
 NAtoms=   29 NActive=   29 NUniq=   29 SFac= 1.00D+00 NAtFMM=   60 NAOKFM=F Big=F
 Integral buffers will be    131072 words long.
 Raffenetti 2 integral format.
 Two-electron integral symmetry is turned on.
 Leave Link  301 at Tue Dec  5 09:30:34 2023, MaxMem=  2147483648 cpu:               3.6 elap:               0.2
 (Enter /opt/gaussian/g16-c01/g16/l302.exe)
 NPDir=0 NMtPBC=     1 NCelOv=     1 NCel=       1 NClECP=     1 NCelD=      1
         NCelK=      1 NCelE2=     1 NClLst=     1 CellRange=     0.0.
 One-electron integrals computed using PRISM.
 One-electron integral symmetry used in STVInt
 NBasis=   473 RedAO= T EigKep=  1.91D-06  NBF=   473
 NBsUse=   467 1.00D-06 EigRej=  3.33D-07 NBFU=   467
 Precomputing XC quadrature grid using
 IXCGrd= 4 IRadAn=           5 IRanWt=          -1 IRanGd=           0 AccXCQ= 0.00D+00.
 Generated NRdTot=       0 NPtTot=           0 NUsed=           0 NTot=          32
 NSgBfM=   491   491   491   491   491 MxSgAt=    29 MxSgA2=    29.
 Leave Link  302 at Tue Dec  5 09:30:35 2023, MaxMem=  2147483648 cpu:              17.2 elap:               0.8
 (Enter /opt/gaussian/g16-c01/g16/l303.exe)
 DipDrv:  MaxL=1.
 Leave Link  303 at Tue Dec  5 09:30:35 2023, MaxMem=  2147483648 cpu:               4.5 elap:               0.3
 (Enter /opt/gaussian/g16-c01/g16/l401.exe)
 ExpMin= 3.60D-02 ExpMax= 8.59D+03 ExpMxC= 1.30D+03 IAcc=3 IRadAn=         5 AccDes= 0.00D+00
 Harris functional with IExCor= 1009 and IRadAn=       5 diagonalized for initial guess.
 HarFok:  IExCor= 1009 AccDes= 0.00D+00 IRadAn=         5 IDoV= 1 UseB2=F ITyADJ=14
 ICtDFT=  3500011 ScaDFX=  1.000000  1.000000  1.000000  1.000000
 FoFCou: FMM=F IPFlag=           0 FMFlag=      100000 FMFlg1=           0
         NFxFlg=           0 DoJE=T BraDBF=F KetDBF=T FulRan=T
         wScrn=  0.000000 ICntrl=       500 IOpCl=  0 I1Cent=   200000004 NGrid=           0
         NMat0=    1 NMatS0=      1 NMatT0=    0 NMatD0=    1 NMtDS0=    0 NMtDT0=    0
 Petite list used in FoFCou.
 Harris En= -782.906284371808    
 JPrj=0 DoOrth=F DoCkMO=F.
 Leave Link  401 at Tue Dec  5 09:30:37 2023, MaxMem=  2147483648 cpu:              36.3 elap:               1.5
 (Enter /opt/gaussian/g16-c01/g16/l502.exe)
 Integral symmetry usage will be decided dynamically.
 Closed shell SCF:
 Using DIIS extrapolation, IDIIS=  1040.
 NGot=  2147483648 LenX=  2146983406 LenY=  2146741834
 Requested convergence on RMS density matrix=1.00D-08 within 128 cycles.
 Requested convergence on MAX density matrix=1.00D-06.
 Requested convergence on             energy=1.00D-06.
 No special actions if energy rises.
 Fock matrices will be formed incrementally for  20 cycles.

 Cycle   1  Pass 1  IDiag  1:
 FoFJK:  IHMeth= 1 ICntrl=       0 DoSepK=F KAlg= 0 I1Cent=           0 FoldK=F
 IRaf= 860000000 NMat=       1 IRICut=       1 DoRegI=T DoRafI=F ISym2E= 0 IDoP0=0 IntGTp=1.
 FoFCou: FMM=F IPFlag=           0 FMFlag=      100000 FMFlg1=           0
         NFxFlg=           0 DoJE=F BraDBF=F KetDBF=F FulRan=T
         wScrn=  0.000000 ICntrl=         0 IOpCl=  0 I1Cent=           0 NGrid=           0
         NMat0=    1 NMatS0=      1 NMatT0=    0 NMatD0=    1 NMtDS0=    0 NMtDT0=    0
 Symmetry not used in FoFCou.
 E= -782.359625087799    
 DIIS: error= 2.62D-02 at cycle   1 NSaved=   1.
 NSaved= 1 IEnMin= 1 EnMin= -782.359625087799     IErMin= 1 ErrMin= 2.62D-02
 ErrMax= 2.62D-02  0.00D+00 EMaxC= 1.00D-01 BMatC= 4.17D-01 BMatP= 4.17D-01
 IDIUse=3 WtCom= 7.38D-01 WtEn= 2.62D-01
 Coeff-Com:  0.100D+01
 Coeff-En:   0.100D+01
 Coeff:      0.100D+01
 Gap=     0.160 Goal=   None    Shift=    0.000
 GapD=    0.160 DampG=1.000 DampE=0.500 DampFc=0.5000 IDamp=-1.
 Damping current iteration by 5.00D-01
 RMSDP=1.70D-02 MaxDP=1.03D+00              OVMax= 2.01D-01

 Cycle   2  Pass 1  IDiag  1:
 RMSU=  8.30D-03    CP:  1.03D+00
 E= -782.501302134064     Delta-E=       -0.141677046266 Rises=F Damp=T
 DIIS: error= 1.25D-02 at cycle   2 NSaved=   2.
 NSaved= 2 IEnMin= 2 EnMin= -782.501302134064     IErMin= 2 ErrMin= 1.25D-02
 ErrMax= 1.25D-02  0.00D+00 EMaxC= 1.00D-01 BMatC= 5.88D-02 BMatP= 4.17D-01
 IDIUse=3 WtCom= 8.75D-01 WtEn= 1.25D-01
 Coeff-Com:  0.195D-01 0.980D+00
 Coeff-En:   0.606D-01 0.939D+00
 Coeff:      0.247D-01 0.975D+00
 Gap=     0.174 Goal=   None    Shift=    0.000
 RMSDP=1.09D-02 MaxDP=8.28D-01 DE=-1.42D-01 OVMax= 1.47D-01

 Cycle   3  Pass 1  IDiag  1:
 RMSU=  5.32D-03    CP:  8.54D-01  8.12D-01
 E= -782.633217869252     Delta-E=       -0.131915735187 Rises=F Damp=F
 DIIS: error= 1.72D-02 at cycle   3 NSaved=   3.
 NSaved= 3 IEnMin= 3 EnMin= -782.633217869252     IErMin= 2 ErrMin= 1.25D-02
 ErrMax= 1.72D-02  0.00D+00 EMaxC= 1.00D-01 BMatC= 6.81D-02 BMatP= 5.88D-02
 IDIUse=2 WtCom= 0.00D+00 WtEn= 1.00D+00
 Coeff-En:   0.000D+00 0.000D+00 0.100D+01
 Coeff:      0.000D+00 0.000D+00 0.100D+01
 Gap=     0.162 Goal=   None    Shift=    0.000
 RMSDP=7.51D-03 MaxDP=3.68D-01 DE=-1.32D-01 OVMax= 2.39D-01

 Cycle   4  Pass 1  IDiag  1:
 RMSU=  4.62D-03    CP:  8.86D-01  1.45D+00  6.11D-01
 E= -782.433860785421     Delta-E=        0.199357083831 Rises=F Damp=F
 DIIS: error= 4.06D-02 at cycle   4 NSaved=   4.
 NSaved= 4 IEnMin= 3 EnMin= -782.633217869252     IErMin= 2 ErrMin= 1.25D-02
 ErrMax= 4.06D-02  0.00D+00 EMaxC= 1.00D-01 BMatC= 3.28D-01 BMatP= 5.88D-02
 IDIUse=2 WtCom= 0.00D+00 WtEn= 1.00D+00
 Coeff-En:   0.000D+00 0.000D+00 0.776D+00 0.224D+00
 Coeff:      0.000D+00 0.000D+00 0.776D+00 0.224D+00
 Gap=     0.168 Goal=   None    Shift=    0.000
 RMSDP=4.32D-03 MaxDP=3.38D-01 DE= 1.99D-01 OVMax= 1.10D-01

 Cycle   5  Pass 1  IDiag  1:
 RMSU=  8.50D-04    CP:  8.42D-01  1.14D+00  7.86D-01  5.13D-01
 E= -782.669224240588     Delta-E=       -0.235363455167 Rises=F Damp=F
 DIIS: error= 1.02D-02 at cycle   5 NSaved=   5.
 NSaved= 5 IEnMin= 5 EnMin= -782.669224240588     IErMin= 5 ErrMin= 1.02D-02
 ErrMax= 1.02D-02  0.00D+00 EMaxC= 1.00D-01 BMatC= 2.20D-02 BMatP= 5.88D-02
 IDIUse=3 WtCom= 8.98D-01 WtEn= 1.02D-01
 Coeff-Com:  0.264D-02 0.639D-02 0.277D+00-0.817D-01 0.796D+00
 Coeff-En:   0.000D+00 0.000D+00 0.289D+00 0.000D+00 0.711D+00
 Coeff:      0.237D-02 0.574D-02 0.278D+00-0.733D-01 0.787D+00
 Gap=     0.166 Goal=   None    Shift=    0.000
 RMSDP=1.37D-03 MaxDP=7.88D-02 DE=-2.35D-01 OVMax= 3.01D-02

 Cycle   6  Pass 1  IDiag  1:
 RMSU=  3.23D-04    CP:  8.30D-01  1.04D+00  8.67D-01  3.55D-01  8.67D-01
 E= -782.685999436888     Delta-E=       -0.016775196300 Rises=F Damp=F
 DIIS: error= 7.31D-04 at cycle   6 NSaved=   6.
 NSaved= 6 IEnMin= 6 EnMin= -782.685999436888     IErMin= 6 ErrMin= 7.31D-04
 ErrMax= 7.31D-04  0.00D+00 EMaxC= 1.00D-01 BMatC= 1.01D-04 BMatP= 2.20D-02
 IDIUse=3 WtCom= 9.93D-01 WtEn= 7.31D-03
 Coeff-Com: -0.338D-03 0.387D-02 0.116D+00-0.589D-01 0.439D+00 0.500D+00
 Coeff-En:   0.000D+00 0.000D+00 0.000D+00 0.000D+00 0.000D+00 0.100D+01
 Coeff:     -0.336D-03 0.384D-02 0.115D+00-0.585D-01 0.436D+00 0.504D+00
 Gap=     0.166 Goal=   None    Shift=    0.000
 RMSDP=2.33D-04 MaxDP=2.30D-02 DE=-1.68D-02 OVMax= 3.35D-03

 Cycle   7  Pass 1  IDiag  1:
 RMSU=  8.01D-05    CP:  8.33D-01  1.05D+00  8.63D-01  3.63D-01  9.06D-01
                    CP:  6.53D-01
 E= -782.686093561044     Delta-E=       -0.000094124156 Rises=F Damp=F
 DIIS: error= 2.29D-04 at cycle   7 NSaved=   7.
 NSaved= 7 IEnMin= 7 EnMin= -782.686093561044     IErMin= 7 ErrMin= 2.29D-04
 ErrMax= 2.29D-04  0.00D+00 EMaxC= 1.00D-01 BMatC= 6.96D-06 BMatP= 1.01D-04
 IDIUse=3 WtCom= 9.98D-01 WtEn= 2.29D-03
 Coeff-Com:  0.123D-03-0.528D-03 0.201D-01-0.157D-01 0.933D-01 0.202D+00
 Coeff-Com:  0.701D+00
 Coeff-En:   0.000D+00 0.000D+00 0.000D+00 0.000D+00 0.000D+00 0.000D+00
 Coeff-En:   0.100D+01
 Coeff:      0.123D-03-0.527D-03 0.200D-01-0.156D-01 0.931D-01 0.202D+00
 Coeff:      0.701D+00
 Gap=     0.166 Goal=   None    Shift=    0.000
 RMSDP=3.97D-05 MaxDP=2.16D-03 DE=-9.41D-05 OVMax= 1.04D-03

 Cycle   8  Pass 1  IDiag  1:
 RMSU=  2.23D-05    CP:  8.33D-01  1.05D+00  8.65D-01  3.60D-01  9.02D-01
                    CP:  7.18D-01  9.66D-01
 E= -782.686100256177     Delta-E=       -0.000006695133 Rises=F Damp=F
 DIIS: error= 8.46D-05 at cycle   8 NSaved=   8.
 NSaved= 8 IEnMin= 8 EnMin= -782.686100256177     IErMin= 8 ErrMin= 8.46D-05
 ErrMax= 8.46D-05  0.00D+00 EMaxC= 1.00D-01 BMatC= 1.08D-06 BMatP= 6.96D-06
 IDIUse=1 WtCom= 1.00D+00 WtEn= 0.00D+00
 Coeff-Com:  0.304D-03-0.133D-02-0.393D-02-0.409D-04-0.964D-02 0.402D-01
 Coeff-Com:  0.379D+00 0.595D+00
 Coeff:      0.304D-03-0.133D-02-0.393D-02-0.409D-04-0.964D-02 0.402D-01
 Coeff:      0.379D+00 0.595D+00
 Gap=     0.166 Goal=   None    Shift=    0.000
 RMSDP=1.12D-05 MaxDP=9.98D-04 DE=-6.70D-06 OVMax= 3.96D-04

 Cycle   9  Pass 1  IDiag  1:
 RMSU=  7.06D-06    CP:  8.33D-01  1.05D+00  8.66D-01  3.61D-01  9.02D-01
                    CP:  7.12D-01  1.04D+00  8.80D-01
 E= -782.686101354380     Delta-E=       -0.000001098203 Rises=F Damp=F
 DIIS: error= 1.75D-05 at cycle   9 NSaved=   9.
 NSaved= 9 IEnMin= 9 EnMin= -782.686101354380     IErMin= 9 ErrMin= 1.75D-05
 ErrMax= 1.75D-05  0.00D+00 EMaxC= 1.00D-01 BMatC= 4.60D-08 BMatP= 1.08D-06
 IDIUse=1 WtCom= 1.00D+00 WtEn= 0.00D+00
 Coeff-Com:  0.576D-04-0.283D-03-0.306D-02 0.976D-03-0.972D-02-0.772D-02
 Coeff-Com:  0.299D-01 0.181D+00 0.809D+00
 Coeff:      0.576D-04-0.283D-03-0.306D-02 0.976D-03-0.972D-02-0.772D-02
 Coeff:      0.299D-01 0.181D+00 0.809D+00
 Gap=     0.166 Goal=   None    Shift=    0.000
 RMSDP=6.31D-06 MaxDP=2.87D-04 DE=-1.10D-06 OVMax= 1.17D-04

 Cycle  10  Pass 1  IDiag  1:
 RMSU=  2.75D-06    CP:  8.33D-01  1.05D+00  8.66D-01  3.61D-01  9.03D-01
                    CP:  7.22D-01  1.06D+00  9.46D-01  1.02D+00
 E= -782.686101420544     Delta-E=       -0.000000066165 Rises=F Damp=F
 DIIS: error= 6.44D-06 at cycle  10 NSaved=  10.
 NSaved=10 IEnMin=10 EnMin= -782.686101420544     IErMin=10 ErrMin= 6.44D-06
 ErrMax= 6.44D-06  0.00D+00 EMaxC= 1.00D-01 BMatC= 1.04D-08 BMatP= 4.60D-08
 IDIUse=1 WtCom= 1.00D+00 WtEn= 0.00D+00
 Coeff-Com: -0.305D-05 0.447D-05-0.104D-02 0.526D-03-0.380D-02-0.819D-02
 Coeff-Com: -0.274D-01 0.233D-01 0.374D+00 0.642D+00
 Coeff:     -0.305D-05 0.447D-05-0.104D-02 0.526D-03-0.380D-02-0.819D-02
 Coeff:     -0.274D-01 0.233D-01 0.374D+00 0.642D+00
 Gap=     0.166 Goal=   None    Shift=    0.000
 RMSDP=1.20D-06 MaxDP=1.04D-04 DE=-6.62D-08 OVMax= 1.05D-04

 Cycle  11  Pass 1  IDiag  1:
 RMSU=  8.30D-07    CP:  8.33D-01  1.05D+00  8.66D-01  3.61D-01  9.03D-01
                    CP:  7.22D-01  1.06D+00  9.58D-01  1.06D+00  1.01D+00
 E= -782.686101433006     Delta-E=       -0.000000012461 Rises=F Damp=F
 DIIS: error= 4.09D-06 at cycle  11 NSaved=  11.
 NSaved=11 IEnMin=11 EnMin= -782.686101433006     IErMin=11 ErrMin= 4.09D-06
 ErrMax= 4.09D-06  0.00D+00 EMaxC= 1.00D-01 BMatC= 4.14D-09 BMatP= 1.04D-08
 IDIUse=1 WtCom= 1.00D+00 WtEn= 0.00D+00
 Coeff-Com: -0.141D-04 0.644D-04 0.121D-03 0.411D-04 0.196D-03-0.309D-02
 Coeff-Com: -0.235D-01-0.260D-01 0.434D-01 0.409D+00 0.600D+00
 Coeff:     -0.141D-04 0.644D-04 0.121D-03 0.411D-04 0.196D-03-0.309D-02
 Coeff:     -0.235D-01-0.260D-01 0.434D-01 0.409D+00 0.600D+00
 Gap=     0.166 Goal=   None    Shift=    0.000
 RMSDP=1.29D-06 MaxDP=6.20D-05 DE=-1.25D-08 OVMax= 3.09D-05

 Cycle  12  Pass 1  IDiag  1:
 RMSU=  7.09D-07    CP:  8.33D-01  1.05D+00  8.66D-01  3.61D-01  9.02D-01
                    CP:  7.23D-01  1.06D+00  9.71D-01  1.10D+00  1.15D+00
                    CP:  9.50D-01
 E= -782.686101437221     Delta-E=       -0.000000004215 Rises=F Damp=F
 DIIS: error= 1.41D-06 at cycle  12 NSaved=  12.
 NSaved=12 IEnMin=12 EnMin= -782.686101437221     IErMin=12 ErrMin= 1.41D-06
 ErrMax= 1.41D-06  0.00D+00 EMaxC= 1.00D-01 BMatC= 4.53D-10 BMatP= 4.14D-09
 IDIUse=1 WtCom= 1.00D+00 WtEn= 0.00D+00
 Coeff-Com: -0.644D-05 0.321D-04 0.215D-03-0.381D-04 0.547D-03-0.450D-03
 Coeff-Com: -0.744D-02-0.174D-01-0.443D-01 0.133D+00 0.312D+00 0.625D+00
 Coeff:     -0.644D-05 0.321D-04 0.215D-03-0.381D-04 0.547D-03-0.450D-03
 Coeff:     -0.744D-02-0.174D-01-0.443D-01 0.133D+00 0.312D+00 0.625D+00
 Gap=     0.166 Goal=   None    Shift=    0.000
 RMSDP=2.16D-07 MaxDP=7.44D-06 DE=-4.22D-09 OVMax= 2.03D-05

 Cycle  13  Pass 1  IDiag  1:
 RMSU=  1.57D-07    CP:  8.33D-01  1.05D+00  8.66D-01  3.61D-01  9.02D-01
                    CP:  7.23D-01  1.06D+00  9.73D-01  1.10D+00  1.18D+00
                    CP:  1.05D+00  9.83D-01
 E= -782.686101437724     Delta-E=       -0.000000000502 Rises=F Damp=F
 DIIS: error= 7.07D-07 at cycle  13 NSaved=  13.
 NSaved=13 IEnMin=13 EnMin= -782.686101437724     IErMin=13 ErrMin= 7.07D-07
 ErrMax= 7.07D-07  0.00D+00 EMaxC= 1.00D-01 BMatC= 6.87D-11 BMatP= 4.53D-10
 IDIUse=1 WtCom= 1.00D+00 WtEn= 0.00D+00
 Coeff-Com: -0.201D-05 0.927D-05 0.831D-04-0.275D-04 0.217D-03 0.162D-03
 Coeff-Com: -0.134D-03-0.405D-02-0.251D-01 0.887D-02 0.219D-01 0.260D+00
 Coeff-Com:  0.738D+00
 Coeff:     -0.201D-05 0.927D-05 0.831D-04-0.275D-04 0.217D-03 0.162D-03
 Coeff:     -0.134D-03-0.405D-02-0.251D-01 0.887D-02 0.219D-01 0.260D+00
 Coeff:      0.738D+00
 Gap=     0.166 Goal=   None    Shift=    0.000
 RMSDP=1.76D-07 MaxDP=1.08D-05 DE=-5.02D-10 OVMax= 4.69D-06

 Cycle  14  Pass 1  IDiag  1:
 RMSU=  5.83D-08    CP:  8.33D-01  1.05D+00  8.66D-01  3.61D-01  9.02D-01
                    CP:  7.23D-01  1.06D+00  9.72D-01  1.10D+00  1.20D+00
                    CP:  1.07D+00  1.10D+00  1.02D+00
 E= -782.686101437852     Delta-E=       -0.000000000128 Rises=F Damp=F
 DIIS: error= 2.09D-07 at cycle  14 NSaved=  14.
 NSaved=14 IEnMin=14 EnMin= -782.686101437852     IErMin=14 ErrMin= 2.09D-07
 ErrMax= 2.09D-07  0.00D+00 EMaxC= 1.00D-01 BMatC= 8.69D-12 BMatP= 6.87D-11
 IDIUse=1 WtCom= 1.00D+00 WtEn= 0.00D+00
 Coeff-Com: -0.681D-07 0.108D-06 0.114D-04-0.750D-05 0.242D-04 0.136D-03
 Coeff-Com:  0.965D-03 0.439D-03-0.646D-02-0.921D-02-0.367D-01 0.549D-01
 Coeff-Com:  0.356D+00 0.640D+00
 Coeff:     -0.681D-07 0.108D-06 0.114D-04-0.750D-05 0.242D-04 0.136D-03
 Coeff:      0.965D-03 0.439D-03-0.646D-02-0.921D-02-0.367D-01 0.549D-01
 Coeff:      0.356D+00 0.640D+00
 Gap=     0.166 Goal=   None    Shift=    0.000
 RMSDP=6.15D-08 MaxDP=4.62D-06 DE=-1.28D-10 OVMax= 2.26D-06

 Cycle  15  Pass 1  IDiag  1:
 RMSU=  2.31D-08    CP:  8.33D-01  1.05D+00  8.66D-01  3.61D-01  9.02D-01
                    CP:  7.24D-01  1.06D+00  9.72D-01  1.10D+00  1.20D+00
                    CP:  1.07D+00  1.11D+00  1.10D+00  9.97D-01
 E= -782.686101437772     Delta-E=        0.000000000080 Rises=F Damp=F
 DIIS: error= 1.02D-07 at cycle  15 NSaved=  15.
 NSaved=15 IEnMin=14 EnMin= -782.686101437852     IErMin=15 ErrMin= 1.02D-07
 ErrMax= 1.02D-07  0.00D+00 EMaxC= 1.00D-01 BMatC= 1.13D-12 BMatP= 8.69D-12
 IDIUse=1 WtCom= 1.00D+00 WtEn= 0.00D+00
 Coeff-Com:  0.339D-06-0.143D-05-0.708D-05 0.172D-05-0.207D-04 0.240D-04
 Coeff-Com:  0.263D-03 0.664D-03 0.142D-02-0.202D-02-0.182D-01-0.161D-01
 Coeff-Com: -0.205D-01 0.237D+00 0.817D+00
 Coeff:      0.339D-06-0.143D-05-0.708D-05 0.172D-05-0.207D-04 0.240D-04
 Coeff:      0.263D-03 0.664D-03 0.142D-02-0.202D-02-0.182D-01-0.161D-01
 Coeff:     -0.205D-01 0.237D+00 0.817D+00
 Gap=     0.166 Goal=   None    Shift=    0.000
 RMSDP=2.54D-08 MaxDP=1.26D-06 DE= 8.05D-11 OVMax= 6.33D-07

 Cycle  16  Pass 1  IDiag  1:
 RMSU=  8.18D-09    CP:  8.33D-01  1.05D+00  8.66D-01  3.61D-01  9.02D-01
                    CP:  7.24D-01  1.06D+00  9.72D-01  1.10D+00  1.20D+00
                    CP:  1.07D+00  1.13D+00  1.13D+00  1.08D+00  9.34D-01
 E= -782.686101437774     Delta-E=       -0.000000000002 Rises=F Damp=F
 DIIS: error= 1.85D-08 at cycle  16 NSaved=  16.
 NSaved=16 IEnMin=14 EnMin= -782.686101437852     IErMin=16 ErrMin= 1.85D-08
 ErrMax= 1.85D-08  0.00D+00 EMaxC= 1.00D-01 BMatC= 9.45D-14 BMatP= 1.13D-12
 IDIUse=1 WtCom= 1.00D+00 WtEn= 0.00D+00
 Coeff-Com:  0.146D-06-0.582D-06-0.383D-05 0.162D-05-0.108D-04-0.373D-05
 Coeff-Com:  0.492D-05 0.194D-03 0.896D-03 0.643D-03-0.356D-02-0.833D-02
 Coeff-Com: -0.419D-01 0.269D-01 0.194D+00 0.832D+00
 Coeff:      0.146D-06-0.582D-06-0.383D-05 0.162D-05-0.108D-04-0.373D-05
 Coeff:      0.492D-05 0.194D-03 0.896D-03 0.643D-03-0.356D-02-0.833D-02
 Coeff:     -0.419D-01 0.269D-01 0.194D+00 0.832D+00
 Gap=     0.166 Goal=   None    Shift=    0.000
 RMSDP=6.80D-09 MaxDP=4.06D-07 DE=-2.27D-12 OVMax= 2.80D-07

 SCF Done:  E(RMN15) =  -782.686101438     A.U. after   16 cycles
            NFock= 16  Conv=0.68D-08     -V/T= 2.0032
 KE= 7.801571762312D+02 PE=-4.284421356449D+03 EE= 1.491401625001D+03
 Leave Link  502 at Tue Dec  5 09:32:06 2023, MaxMem=  2147483648 cpu:            2287.1 elap:              89.5
 (Enter /opt/gaussian/g16-c01/g16/l601.exe)
 Copying SCF densities to generalized density rwf, IOpCl= 0 IROHF=0.

 **********************************************************************

            Population analysis using the SCF Density.

 **********************************************************************

 Orbital symmetries:
       Occupied  (A) (A) (A) (A) (A) (A) (A) (A) (A) (A) (A) (A)
                 (A) (A) (A) (A) (A) (A) (A) (A) (A) (A) (A) (A)
                 (A) (A) (A) (A) (A) (A) (A) (A) (A) (A) (A) (A)
                 (A) (A) (A) (A) (A) (A) (A) (A) (A) (A) (A) (A)
                 (A) (A) (A) (A) (A) (A) (A) (A) (A) (A) (A) (A)
                 (A) (A)
       Virtual   (A) (A) (A) (A) (A) (A) (A) (A) (A) (A) (A) (A)
                 (A) (A) (A) (A) (A) (A) (A) (A) (A) (A) (A) (A)
                 (A) (A) (A) (A) (A) (A) (A) (A) (A) (A) (A) (A)
                 (A) (A) (A) (A) (A) (A) (A) (A) (A) (A) (A) (A)
                 (A) (A) (A) (A) (A) (A) (A) (A) (A) (A) (A) (A)
                 (A) (A) (A) (A) (A) (A) (A) (A) (A) (A) (A) (A)
                 (A) (A) (A) (A) (A) (A) (A) (A) (A) (A) (A) (A)
                 (A) (A) (A) (A) (A) (A) (A) (A) (A) (A) (A) (A)
                 (A) (A) (A) (A) (A) (A) (A) (A) (A) (A) (A) (A)
                 (A) (A) (A) (A) (A) (A) (A) (A) (A) (A) (A) (A)
                 (A) (A) (A) (A) (A) (A) (A) (A) (A) (A) (A) (A)
                 (A) (A) (A) (A) (A) (A) (A) (A) (A) (A) (A) (A)
                 (A) (A) (A) (A) (A) (A) (A) (A) (A) (A) (A) (A)
                 (A) (A) (A) (A) (A) (A) (A) (A) (A) (A) (A) (A)
                 (A) (A) (A) (A) (A) (A) (A) (A) (A) (A) (A) (A)
                 (A) (A) (A) (A) (A) (A) (A) (A) (A) (A) (A) (A)
                 (A) (A) (A) (A) (A) (A) (A) (A) (A) (A) (A) (A)
                 (A) (A) (A) (A) (A) (A) (A) (A) (A) (A) (A) (A)
                 (A) (A) (A) (A) (A) (A) (A) (A) (A) (A) (A) (A)
                 (A) (A) (A) (A) (A) (A) (A) (A) (A) (A) (A) (A)
                 (A) (A) (A) (A) (A) (A) (A) (A) (A) (A) (A) (A)
                 (A) (A) (A) (A) (A) (A) (A) (A) (A) (A) (A) (A)
                 (A) (A) (A) (A) (A) (A) (A) (A) (A) (A) (A) (A)
                 (A) (A) (A) (A) (A) (A) (A) (A) (A) (A) (A) (A)
                 (A) (A) (A) (A) (A) (A) (A) (A) (A) (A) (A) (A)
                 (A) (A) (A) (A) (A) (A) (A) (A) (A) (A) (A) (A)
                 (A) (A) (A) (A) (A) (A) (A) (A) (A) (A) (A) (A)
                 (A) (A) (A) (A) (A) (A) (A) (A) (A) (A) (A) (A)
                 (A) (A) (A) (A) (A) (A) (A) (A) (A) (A) (A) (A)
                 (A) (A) (A) (A) (A) (A) (A) (A) (A) (A) (A) (A)
                 (A) (A) (A) (A) (A) (A) (A) (A) (A) (A) (A) (A)
                 (A) (A) (A) (A) (A) (A) (A) (A) (A) (A) (A) (A)
                 (A) (A) (A) (A) (A) (A) (A) (A) (A) (A) (A) (A)
                 (A) (A) (A) (A) (A) (A) (A) (A) (A)
 The electronic state is 1-A.
 Alpha  occ. eigenvalues --  -18.86795 -18.81500 -14.09065 -10.19808 -10.10726
 Alpha  occ. eigenvalues --  -10.08768 -10.08765 -10.08403 -10.06926 -10.06922
 Alpha  occ. eigenvalues --  -10.06027 -10.06024 -10.05772 -10.05771 -10.05650
 Alpha  occ. eigenvalues --  -10.05649 -10.05045 -10.05044  -1.16276  -1.07313
 Alpha  occ. eigenvalues --   -1.00665  -0.92343  -0.90829  -0.87438  -0.81507
 Alpha  occ. eigenvalues --   -0.80907  -0.79598  -0.77362  -0.72827  -0.69021
 Alpha  occ. eigenvalues --   -0.68398  -0.65153  -0.62535  -0.60642  -0.60436
 Alpha  occ. eigenvalues --   -0.58235  -0.54608  -0.54052  -0.52737  -0.52599
 Alpha  occ. eigenvalues --   -0.52223  -0.51571  -0.48672  -0.48402  -0.48195
 Alpha  occ. eigenvalues --   -0.47646  -0.46996  -0.44078  -0.43012  -0.42927
 Alpha  occ. eigenvalues --   -0.41956  -0.41084  -0.40498  -0.39447  -0.37994
 Alpha  occ. eigenvalues --   -0.36851  -0.36686  -0.34215  -0.30795  -0.30547
 Alpha  occ. eigenvalues --   -0.29693  -0.24590
 Alpha virt. eigenvalues --   -0.08003  -0.00856   0.00375   0.00814   0.02800
 Alpha virt. eigenvalues --    0.03127   0.03650   0.03994   0.05356   0.05374
 Alpha virt. eigenvalues --    0.06228   0.06658   0.06826   0.07281   0.07819
 Alpha virt. eigenvalues --    0.08486   0.09166   0.09937   0.10360   0.10963
 Alpha virt. eigenvalues --    0.11637   0.11661   0.12499   0.13046   0.13127
 Alpha virt. eigenvalues --    0.13863   0.14213   0.14397   0.14700   0.15038
 Alpha virt. eigenvalues --    0.15182   0.15557   0.15966   0.15990   0.16116
 Alpha virt. eigenvalues --    0.16295   0.16656   0.16978   0.17398   0.17536
 Alpha virt. eigenvalues --    0.17884   0.18557   0.18798   0.19290   0.19588
 Alpha virt. eigenvalues --    0.19968   0.20297   0.21149   0.21399   0.22118
 Alpha virt. eigenvalues --    0.22271   0.22744   0.22825   0.22987   0.23211
 Alpha virt. eigenvalues --    0.24107   0.24216   0.24297   0.25078   0.25253
 Alpha virt. eigenvalues --    0.25793   0.25960   0.26121   0.27231   0.27610
 Alpha virt. eigenvalues --    0.27768   0.28128   0.28396   0.28912   0.30016
 Alpha virt. eigenvalues --    0.30061   0.30310   0.30480   0.30835   0.31226
 Alpha virt. eigenvalues --    0.31574   0.32003   0.32007   0.32617   0.32702
 Alpha virt. eigenvalues --    0.33296   0.34082   0.34400   0.34618   0.34823
 Alpha virt. eigenvalues --    0.35136   0.35363   0.35778   0.35906   0.37147
 Alpha virt. eigenvalues --    0.37289   0.37695   0.37935   0.38730   0.39632
 Alpha virt. eigenvalues --    0.40139   0.40494   0.40626   0.41226   0.42517
 Alpha virt. eigenvalues --    0.42871   0.43769   0.44598   0.44993   0.46170
 Alpha virt. eigenvalues --    0.47154   0.47849   0.48468   0.50198   0.50573
 Alpha virt. eigenvalues --    0.51837   0.51901   0.54089   0.56011   0.56253
 Alpha virt. eigenvalues --    0.57250   0.57636   0.58178   0.58240   0.58413
 Alpha virt. eigenvalues --    0.59113   0.59761   0.60063   0.61581   0.61748
 Alpha virt. eigenvalues --    0.61833   0.62665   0.62946   0.62956   0.63730
 Alpha virt. eigenvalues --    0.64163   0.65250   0.66083   0.67062   0.67466
 Alpha virt. eigenvalues --    0.68252   0.68483   0.69094   0.69631   0.70224
 Alpha virt. eigenvalues --    0.70708   0.71386   0.72306   0.74112   0.75012
 Alpha virt. eigenvalues --    0.75506   0.75787   0.76625   0.76739   0.77536
 Alpha virt. eigenvalues --    0.78453   0.78541   0.79690   0.80566   0.81896
 Alpha virt. eigenvalues --    0.83436   0.84082   0.86925   0.87810   0.88062
 Alpha virt. eigenvalues --    0.88856   0.89859   0.90089   0.90122   0.91248
 Alpha virt. eigenvalues --    0.91858   0.92948   0.93896   0.95153   0.95463
 Alpha virt. eigenvalues --    0.96119   0.96865   0.97925   0.97994   0.99659
 Alpha virt. eigenvalues --    1.00806   1.01159   1.01649   1.03274   1.03621
 Alpha virt. eigenvalues --    1.03692   1.04509   1.04827   1.05586   1.07107
 Alpha virt. eigenvalues --    1.07828   1.08486   1.08964   1.10349   1.11849
 Alpha virt. eigenvalues --    1.12228   1.13067   1.13656   1.16024   1.16951
 Alpha virt. eigenvalues --    1.18975   1.19279   1.19695   1.23711   1.24947
 Alpha virt. eigenvalues --    1.27099   1.27727   1.29367   1.30638   1.34639
 Alpha virt. eigenvalues --    1.36004   1.36401   1.39435   1.40290   1.43121
 Alpha virt. eigenvalues --    1.44120   1.44511   1.45147   1.46959   1.49563
 Alpha virt. eigenvalues --    1.51734   1.51842   1.52195   1.53607   1.54206
 Alpha virt. eigenvalues --    1.54776   1.55831   1.57340   1.57386   1.58099
 Alpha virt. eigenvalues --    1.58539   1.59532   1.61186   1.61247   1.61980
 Alpha virt. eigenvalues --    1.64532   1.65741   1.68018   1.68740   1.69909
 Alpha virt. eigenvalues --    1.70187   1.70916   1.71784   1.72426   1.73954
 Alpha virt. eigenvalues --    1.74392   1.74615   1.75430   1.76444   1.77371
 Alpha virt. eigenvalues --    1.80439   1.80974   1.81078   1.83088   1.84693
 Alpha virt. eigenvalues --    1.86182   1.87694   1.88500   1.88658   1.89563
 Alpha virt. eigenvalues --    1.89997   1.91458   1.93311   1.93906   1.95226
 Alpha virt. eigenvalues --    1.96357   1.96710   1.96826   1.98238   1.98449
 Alpha virt. eigenvalues --    1.99410   2.00581   2.01316   2.03425   2.03762
 Alpha virt. eigenvalues --    2.06462   2.08716   2.09100   2.10678   2.10930
 Alpha virt. eigenvalues --    2.16093   2.18362   2.19976   2.20270   2.22570
 Alpha virt. eigenvalues --    2.23280   2.26541   2.27161   2.27999   2.31120
 Alpha virt. eigenvalues --    2.34742   2.40044   2.40850   2.44023   2.44446
 Alpha virt. eigenvalues --    2.44863   2.45474   2.46244   2.46418   2.50299
 Alpha virt. eigenvalues --    2.51256   2.51464   2.55097   2.57745   2.57827
 Alpha virt. eigenvalues --    2.59824   2.59980   2.64871   2.67169   2.68277
 Alpha virt. eigenvalues --    2.68299   2.68322   2.69821   2.70022   2.70877
 Alpha virt. eigenvalues --    2.71383   2.72842   2.72975   2.74335   2.76477
 Alpha virt. eigenvalues --    2.77221   2.77650   2.77799   2.78909   2.79744
 Alpha virt. eigenvalues --    2.79957   2.81634   2.83066   2.83581   2.84861
 Alpha virt. eigenvalues --    2.84948   2.87958   2.88524   2.89134   2.92002
 Alpha virt. eigenvalues --    2.94189   2.97375   2.98411   2.99098   3.03153
 Alpha virt. eigenvalues --    3.03957   3.04287   3.05671   3.05863   3.16164
 Alpha virt. eigenvalues --    3.18504   3.19856   3.20763   3.23581   3.24311
 Alpha virt. eigenvalues --    3.26589   3.30823   3.32752   3.33075   3.35485
 Alpha virt. eigenvalues --    3.38258   3.42612   3.45703   3.49123   3.49718
 Alpha virt. eigenvalues --    3.50892   3.51251   3.53073   3.53594   3.60566
 Alpha virt. eigenvalues --    3.69063   3.72962   3.74553   3.87704   3.87999
 Alpha virt. eigenvalues --    3.89897   3.91803   3.96029   3.96377   3.99332
 Alpha virt. eigenvalues --    4.02417   4.03118   4.04611   4.10819   4.11540
 Alpha virt. eigenvalues --    4.21988   4.41346   4.48827   4.71080   4.72976
 Alpha virt. eigenvalues --    4.94132   5.07962   5.14409   5.22864   5.28122
 Alpha virt. eigenvalues --    5.49612   5.71378  22.46507  22.64546  22.72719
 Alpha virt. eigenvalues --   22.79483  22.80603  22.84201  22.86432  22.89763
 Alpha virt. eigenvalues --   22.92470  22.94934  22.96901  22.96981  22.97974
 Alpha virt. eigenvalues --   23.05565  23.06117  34.01687  47.44314  47.51497
          Condensed to atoms (all electrons):
               1          2          3          4          5          6
     1  O    8.269904  -0.187515  -0.001107   0.109429   0.109160  -0.045362
     2  O   -0.187515   7.844946  -0.000060   0.084810   0.084258   0.236277
     3  N   -0.001107  -0.000060   7.039515   0.075178   0.075214   0.282930
     4  C    0.109429   0.084810   0.075178   9.010214   0.399994   2.888055
     5  C    0.109160   0.084258   0.075214   0.399994   9.006750   2.884623
     6  C   -0.045362   0.236277   0.282930   2.888055   2.884623  11.174894
     7  C    0.035443   0.052903  -0.388514   1.161442  -0.921608  -0.184358
     8  C    0.035085   0.052658  -0.388985  -0.922161   1.159808  -0.186513
     9  C   -0.019610  -0.140891   0.090021  -0.691709  -1.505952  -2.491284
    10  C   -0.021040  -0.141073   0.089867  -1.505368  -0.692154  -2.486243
    11  C   -0.029101  -0.011933  -0.245982  -1.630009  -1.256772  -1.711514
    12  C   -0.029243  -0.012071  -0.245923  -1.255003  -1.627683  -1.710813
    13  C   -0.484269   0.288417   0.327297  -1.679969  -1.678760  -2.875421
    14  C    0.045607   0.002181   0.018233  -1.092977   0.385304   0.097227
    15  C    0.045458   0.002541   0.018267   0.385082  -1.087351   0.101143
    16  C    0.009927  -0.001496   0.052168  -0.105091  -0.085334  -0.428117
    17  C    0.009862  -0.001594   0.052055  -0.086108  -0.102930  -0.430978
    18  C    0.176704  -0.043818   0.002246  -0.093155  -0.092850  -0.228149
    19  H   -0.029683  -0.017390   0.001522  -0.040056  -0.075963  -0.144821
    20  H   -0.029792  -0.017326   0.001520  -0.075739  -0.040678  -0.144191
    21  H   -0.000360  -0.000105  -0.013421   0.007411  -0.019234  -0.011000
    22  H   -0.000360  -0.000104  -0.013391  -0.019161   0.007384  -0.010822
    23  H    0.000618   0.000903   0.001174   0.018414   0.008463   0.020130
    24  H    0.000628   0.000911   0.001175   0.008458   0.018439   0.020091
    25  H    0.000244  -0.000006   0.000025   0.059595   0.002676   0.015335
    26  H    0.000242  -0.000008   0.000021   0.002651   0.059677   0.015277
    27  H   -0.090692  -0.001468   0.000430  -0.013640  -0.013647  -0.022949
    28  H   -0.010508   0.000381  -0.000253   0.015316   0.013916   0.034994
    29  H   -0.010575   0.000355  -0.000250   0.013784   0.015119   0.034550
               7          8          9         10         11         12
     1  O    0.035443   0.035085  -0.019610  -0.021040  -0.029101  -0.029243
     2  O    0.052903   0.052658  -0.140891  -0.141073  -0.011933  -0.012071
     3  N   -0.388514  -0.388985   0.090021   0.089867  -0.245982  -0.245923
     4  C    1.161442  -0.922161  -0.691709  -1.505368  -1.630009  -1.255003
     5  C   -0.921608   1.159808  -1.505952  -0.692154  -1.256772  -1.627683
     6  C   -0.184358  -0.186513  -2.491284  -2.486243  -1.711514  -1.710813
     7  C   14.658000   3.150176  -2.811948  -2.110050  -1.933285  -0.480757
     8  C    3.150176  14.666069  -2.113959  -2.810548  -0.478557  -1.932503
     9  C   -2.811948  -2.113959  12.429474  -0.442228   3.579165  -0.266645
    10  C   -2.110050  -2.810548  -0.442228  12.417726  -0.266767   3.577096
    11  C   -1.933285  -0.478557   3.579165  -0.266767  11.072707  -0.062993
    12  C   -0.480757  -1.932503  -0.266645   3.577096  -0.062993  11.067833
    13  C   -4.456904  -4.458170   2.331687   2.331302   0.142867   0.144619
    14  C    1.435154   0.257424  -2.051815   0.057076  -1.761965  -0.054951
    15  C    0.258482   1.433985   0.057435  -2.047545  -0.055074  -1.760245
    16  C   -0.861038   0.002756   0.000654  -0.123849   0.925057  -0.009806
    17  C    0.002330  -0.860577  -0.124841   0.003168  -0.009930   0.925701
    18  C   -0.068193  -0.068281   0.066613   0.065902  -0.016976  -0.016932
    19  H   -0.107269  -0.045679   0.724197  -0.002206   0.144636   0.004517
    20  H   -0.045519  -0.107236  -0.001887   0.722911   0.004513   0.143931
    21  H   -0.048433  -0.007328   0.063855   0.000982   0.446246   0.002572
    22  H   -0.007367  -0.048300   0.001042   0.063789   0.002598   0.446010
    23  H    0.056885   0.004658  -0.212409   0.002019  -0.023450   0.000308
    24  H    0.004644   0.056812   0.002018  -0.212133   0.000308  -0.023288
    25  H    0.038286  -0.006941  -0.063833  -0.000706  -0.155827  -0.001430
    26  H   -0.006922   0.038190  -0.000722  -0.063688  -0.001427  -0.155906
    27  H   -0.005769  -0.005764   0.003290   0.003258   0.000983   0.000981
    28  H    0.007796   0.005384  -0.001709  -0.005587  -0.003248  -0.000790
    29  H    0.005306   0.007693  -0.005600  -0.001529  -0.000785  -0.003221
              13         14         15         16         17         18
     1  O   -0.484269   0.045607   0.045458   0.009927   0.009862   0.176704
     2  O    0.288417   0.002181   0.002541  -0.001496  -0.001594  -0.043818
     3  N    0.327297   0.018233   0.018267   0.052168   0.052055   0.002246
     4  C   -1.679969  -1.092977   0.385082  -0.105091  -0.086108  -0.093155
     5  C   -1.678760   0.385304  -1.087351  -0.085334  -0.102930  -0.092850
     6  C   -2.875421   0.097227   0.101143  -0.428117  -0.430978  -0.228149
     7  C   -4.456904   1.435154   0.258482  -0.861038   0.002330  -0.068193
     8  C   -4.458170   0.257424   1.433985   0.002756  -0.860577  -0.068281
     9  C    2.331687  -2.051815   0.057435   0.000654  -0.124841   0.066613
    10  C    2.331302   0.057076  -2.047545  -0.123849   0.003168   0.065902
    11  C    0.142867  -1.761965  -0.055074   0.925057  -0.009930  -0.016976
    12  C    0.144619  -0.054951  -1.760245  -0.009806   0.925701  -0.016932
    13  C   17.692610  -0.520317  -0.521089  -0.005741  -0.006782   0.155169
    14  C   -0.520317   8.996918   0.048850   0.201887  -0.016318   0.045558
    15  C   -0.521089   0.048850   8.985208  -0.016313   0.197558   0.045217
    16  C   -0.005741   0.201887  -0.016313   6.320004   0.013480   0.000514
    17  C   -0.006782  -0.016318   0.197558   0.013480   6.325799   0.000456
    18  C    0.155169   0.045558   0.045217   0.000514   0.000456   4.996361
    19  H    0.217666  -0.328545  -0.004030  -0.004431  -0.000941  -0.010383
    20  H    0.217658  -0.004004  -0.327016  -0.000899  -0.004725  -0.010349
    21  H   -0.000420  -0.020256   0.000478  -0.088514   0.001092  -0.000188
    22  H   -0.000385   0.000474  -0.020136   0.001086  -0.088813  -0.000187
    23  H   -0.014241   0.485856   0.000807  -0.036523  -0.000001   0.000887
    24  H   -0.014245   0.000807   0.485606  -0.000004  -0.036623   0.000886
    25  H    0.005631  -0.002252  -0.000082   0.438437   0.000356   0.000115
    26  H    0.005618  -0.000083  -0.002363   0.000359   0.438593   0.000113
    27  H    0.097267  -0.003384  -0.003361   0.000411   0.000408   0.405655
    28  H   -0.114446   0.013413   0.001136  -0.001589   0.000281   0.404138
    29  H   -0.113263   0.001117   0.013270   0.000277  -0.001568   0.404074
              19         20         21         22         23         24
     1  O   -0.029683  -0.029792  -0.000360  -0.000360   0.000618   0.000628
     2  O   -0.017390  -0.017326  -0.000105  -0.000104   0.000903   0.000911
     3  N    0.001522   0.001520  -0.013421  -0.013391   0.001174   0.001175
     4  C   -0.040056  -0.075739   0.007411  -0.019161   0.018414   0.008458
     5  C   -0.075963  -0.040678  -0.019234   0.007384   0.008463   0.018439
     6  C   -0.144821  -0.144191  -0.011000  -0.010822   0.020130   0.020091
     7  C   -0.107269  -0.045519  -0.048433  -0.007367   0.056885   0.004644
     8  C   -0.045679  -0.107236  -0.007328  -0.048300   0.004658   0.056812
     9  C    0.724197  -0.001887   0.063855   0.001042  -0.212409   0.002018
    10  C   -0.002206   0.722911   0.000982   0.063789   0.002019  -0.212133
    11  C    0.144636   0.004513   0.446246   0.002598  -0.023450   0.000308
    12  C    0.004517   0.143931   0.002572   0.446010   0.000308  -0.023288
    13  C    0.217666   0.217658  -0.000420  -0.000385  -0.014241  -0.014245
    14  C   -0.328545  -0.004004  -0.020256   0.000474   0.485856   0.000807
    15  C   -0.004030  -0.327016   0.000478  -0.020136   0.000807   0.485606
    16  C   -0.004431  -0.000899  -0.088514   0.001086  -0.036523  -0.000004
    17  C   -0.000941  -0.004725   0.001092  -0.088813  -0.000001  -0.036623
    18  C   -0.010383  -0.010349  -0.000188  -0.000187   0.000887   0.000886
    19  H    0.662451   0.000361   0.001177   0.000167  -0.029496  -0.000058
    20  H    0.000361   0.661969   0.000165   0.001179  -0.000059  -0.029419
    21  H    0.001177   0.000165   0.562741  -0.001143  -0.000972  -0.000034
    22  H    0.000167   0.001179  -0.001143   0.562768  -0.000034  -0.000968
    23  H   -0.029496  -0.000059  -0.000972  -0.000034   0.585415   0.000009
    24  H   -0.000058  -0.029419  -0.000034  -0.000968   0.000009   0.585333
    25  H   -0.004037  -0.000025  -0.027764  -0.000048  -0.017086  -0.000003
    26  H   -0.000026  -0.004044  -0.000048  -0.027773  -0.000003  -0.017086
    27  H    0.001542   0.001526  -0.000013  -0.000013  -0.000163  -0.000161
    28  H   -0.003707  -0.003678  -0.000015   0.000004   0.000400   0.000109
    29  H   -0.003684  -0.003623   0.000005  -0.000015   0.000109   0.000394
              25         26         27         28         29
     1  O    0.000244   0.000242  -0.090692  -0.010508  -0.010575
     2  O   -0.000006  -0.000008  -0.001468   0.000381   0.000355
     3  N    0.000025   0.000021   0.000430  -0.000253  -0.000250
     4  C    0.059595   0.002651  -0.013640   0.015316   0.013784
     5  C    0.002676   0.059677  -0.013647   0.013916   0.015119
     6  C    0.015335   0.015277  -0.022949   0.034994   0.034550
     7  C    0.038286  -0.006922  -0.005769   0.007796   0.005306
     8  C   -0.006941   0.038190  -0.005764   0.005384   0.007693
     9  C   -0.063833  -0.000722   0.003290  -0.001709  -0.005600
    10  C   -0.000706  -0.063688   0.003258  -0.005587  -0.001529
    11  C   -0.155827  -0.001427   0.000983  -0.003248  -0.000785
    12  C   -0.001430  -0.155906   0.000981  -0.000790  -0.003221
    13  C    0.005631   0.005618   0.097267  -0.114446  -0.113263
    14  C   -0.002252  -0.000083  -0.003384   0.013413   0.001117
    15  C   -0.000082  -0.002363  -0.003361   0.001136   0.013270
    16  C    0.438437   0.000359   0.000411  -0.001589   0.000277
    17  C    0.000356   0.438593   0.000408   0.000281  -0.001568
    18  C    0.000115   0.000113   0.405655   0.404138   0.404074
    19  H   -0.004037  -0.000026   0.001542  -0.003707  -0.003684
    20  H   -0.000025  -0.004044   0.001526  -0.003678  -0.003623
    21  H   -0.027764  -0.000048  -0.000013  -0.000015   0.000005
    22  H   -0.000048  -0.027773  -0.000013   0.000004  -0.000015
    23  H   -0.017086  -0.000003  -0.000163   0.000400   0.000109
    24  H   -0.000003  -0.017086  -0.000161   0.000109   0.000394
    25  H    0.585126   0.000017   0.000031  -0.000005  -0.000011
    26  H    0.000017   0.585141   0.000031  -0.000011  -0.000004
    27  H    0.000031   0.000031   0.564904  -0.036264  -0.036249
    28  H   -0.000005  -0.000011  -0.036264   0.568173  -0.034041
    29  H   -0.000011  -0.000004  -0.036249  -0.034041   0.568018
 Mulliken charges:
               1
     1  O    0.140905
     2  O   -0.074683
     3  N    0.169028
     4  C    0.970313
     5  C    0.970131
     6  C    1.307010
     7  C   -0.428911
     8  C   -0.429196
     9  C   -0.402412
    10  C   -0.402382
    11  C   -0.663485
    12  C   -0.663363
    13  C   -1.013387
    14  C   -0.236220
    15  C   -0.235919
    16  C   -0.198272
    17  C   -0.198410
    18  C   -0.121145
    19  H    0.094167
    20  H    0.094476
    21  H    0.152527
    22  H    0.152518
    23  H    0.147381
    24  H    0.147392
    25  H    0.134181
    26  H    0.134183
    27  H    0.152820
    28  H    0.150407
    29  H    0.150346
 Sum of Mulliken charges =  -0.00000
 Mulliken charges with hydrogens summed into heavy atoms:
               1
     1  O    0.140905
     2  O   -0.074683
     3  N    0.169028
     4  C    0.970313
     5  C    0.970131
     6  C    1.307010
     7  C   -0.428911
     8  C   -0.429196
     9  C   -0.308245
    10  C   -0.307906
    11  C   -0.510958
    12  C   -0.510846
    13  C   -1.013387
    14  C   -0.088839
    15  C   -0.088527
    16  C   -0.064091
    17  C   -0.064227
    18  C    0.332428
 Electronic spatial extent (au):  <R**2>=           4194.1724
 Charge=              0.0000 electrons
 Dipole moment (field-independent basis, Debye):
    X=              0.0062    Y=              1.9017    Z=             -1.6779  Tot=              2.5361
 Quadrupole moment (field-independent basis, Debye-Ang):
   XX=            -83.9197   YY=            -95.0561   ZZ=           -113.5563
   XY=             -0.0066   XZ=             -0.0079   YZ=             -6.2874
 Traceless Quadrupole moment (field-independent basis, Debye-Ang):
   XX=             13.5910   YY=              2.4546   ZZ=            -16.0456
   XY=             -0.0066   XZ=             -0.0079   YZ=             -6.2874
 Octapole moment (field-independent basis, Debye-Ang**2):
  XXX=             -0.0611  YYY=             74.2028  ZZZ=             -7.9146  XYY=              0.2301
  XXY=             -8.5148  XXZ=              1.2464  XZZ=              0.0258  YZZ=              4.5592
  YYZ=            -27.3402  XYZ=             -0.0570
 Hexadecapole moment (field-independent basis, Debye-Ang**3):
 XXXX=          -2670.9757 YYYY=          -2159.9484 ZZZZ=           -272.9995 XXXY=             -0.0710
 XXXZ=              0.1526 YYYX=              0.2812 YYYZ=            -90.4836 ZZZX=             -0.0861
 ZZZY=            -28.9285 XXYY=           -815.0798 XXZZ=           -623.4676 YYZZ=           -474.0914
 XXYZ=             19.0855 YYXZ=             -0.2681 ZZXY=              0.1457
 N-N= 1.230176453779D+03 E-N=-4.284421356572D+03  KE= 7.801571762312D+02
 No NMR shielding tensors so no spin-rotation constants.
 Leave Link  601 at Tue Dec  5 09:32:08 2023, MaxMem=  2147483648 cpu:              26.3 elap:               1.4
 (Enter /opt/gaussian/g16-c01/g16/l701.exe)
 ... and contract with generalized density number  0.
 Compute integral first derivatives.
 Leave Link  701 at Tue Dec  5 09:32:08 2023, MaxMem=  2147483648 cpu:               8.6 elap:               0.4
 (Enter /opt/gaussian/g16-c01/g16/l702.exe)
 L702 exits ... SP integral derivatives will be done elsewhere.
 Leave Link  702 at Tue Dec  5 09:32:08 2023, MaxMem=  2147483648 cpu:               0.9 elap:               0.1
 (Enter /opt/gaussian/g16-c01/g16/l703.exe)
 Integral derivatives from FoFJK, PRISM(SPDF).
 Compute integral first derivatives, UseDBF=F ICtDFT=           0.
 Calling FoFJK, ICntrl=      2127 FMM=F ISym2X=0 I1Cent= 0 IOpClX= 0 NMat=1 NMatS=1 NMatT=0.
 FoFJK:  IHMeth= 1 ICntrl=    2127 DoSepK=F KAlg= 0 I1Cent=           0 FoldK=F
 IRaf=         0 NMat=       1 IRICut=       1 DoRegI=T DoRafI=F ISym2E= 0 IDoP0=0 IntGTp=1.
 FoFCou: FMM=F IPFlag=           0 FMFlag=      100000 FMFlg1=         800
         NFxFlg=           0 DoJE=F BraDBF=F KetDBF=F FulRan=T
         wScrn=  0.000000 ICntrl=      2127 IOpCl=  0 I1Cent=           0 NGrid=           0
         NMat0=    1 NMatS0=      1 NMatT0=    0 NMatD0=    1 NMtDS0=    0 NMtDT0=    0
 Symmetry not used in FoFCou.
 Leave Link  703 at Tue Dec  5 09:32:24 2023, MaxMem=  2147483648 cpu:             404.6 elap:              15.8
 (Enter /opt/gaussian/g16-c01/g16/l716.exe)
 Dipole        = 2.45370079D-03 7.48204277D-01-6.60125879D-01
 ***** Axes restored to original set *****
 -------------------------------------------------------------------
 Center     Atomic                   Forces (Hartrees/Bohr)
 Number     Number              X              Y              Z
 -------------------------------------------------------------------
      1        8           0.000056313    0.005116574    0.018148238
      2        8           0.000034805    0.013437806   -0.041057772
      3        7          -0.000074598    0.005415874   -0.000808628
      4        6           0.010221789   -0.025894757    0.002923901
      5        6          -0.010231180   -0.025851641    0.002958862
      6        6           0.000112092    0.014592883   -0.002937258
      7        6           0.028984670    0.011742045   -0.000862475
      8        6          -0.028962727    0.011662704   -0.000864054
      9        6          -0.036299985    0.000982407   -0.000657600
     10        6           0.036306308    0.000919341   -0.000693778
     11        6          -0.046048088    0.013962826   -0.001573848
     12        6           0.046100320    0.013932901   -0.001584293
     13        6          -0.000172619   -0.039863514    0.020027156
     14        6           0.015904687   -0.030948338    0.003271940
     15        6          -0.016114400   -0.030894293    0.003277858
     16        6           0.022015996    0.031089653   -0.003382382
     17        6          -0.021915931    0.031149234   -0.003373721
     18        6           0.000008140   -0.003037216    0.000090586
     19        1           0.004921102    0.001094380    0.000280800
     20        1          -0.004917015    0.001136651    0.000286937
     21        1           0.004261872   -0.003325669    0.000402906
     22        1          -0.004248416   -0.003371725    0.000404807
[...]
 00000874,0.00094579,0.00021312,0.00002173,-0.00000511,0.00001220,-0.00
 000103,0.00002398,0.00015663,-0.00000594,0.00000252,-0.00000818,0.0000
 0060,0.29603386,-0.00006843,-0.00003778,-0.00002458,0.00000042,-0.0000
 3722,-0.00000673,-0.00066513,0.00012633,-0.00008025,0.00333634,-0.0013
 6537,0.00094755,0.00034169,0.00005072,-0.00005566,0.00018455,0.0005966
 7,-0.00006062,0.00124285,-0.00052845,0.00004480,0.00029862,-0.00018190
 ,0.00003489,0.01629223,0.01101386,-0.00047917,-0.00009084,0.00006079,-
 0.00001112,0.00107869,-0.00558132,0.00086801,-0.00013903,-0.00000639,0
 .00000200,0.00001004,0.00013316,0.00007678,-0.12084879,-0.12173035,0.0
 0661015,0.00005376,0.00011445,-0.00000137,-0.02789215,-0.00890770,0.00
 084735,0.00006891,-0.00010079,0.00000748,0.00001278,0.00000824,-0.0000
 0693,-0.00044021,0.00079650,-0.00057863,-0.00000689,0.00000037,-0.0000
 0023,-0.00126558,-0.00046803,-0.00000110,0.00001176,0.00000437,0.00000
 007,0.12794405,0.12503666,0.00013784,-0.00006441,-0.00013363,0.0000513
 8,-0.00002697,-0.00007136,0.00013476,-0.00003621,-0.00060093,-0.000794
 38,0.00091778,0.00909322,-0.00004995,-0.00010980,-0.00088774,0.0001503
 5,-0.00023280,0.00024871,-0.00018013,0.00002834,-0.00046356,-0.0000861
 2,0.00006620,0.00010133,-0.00127941,-0.00070932,0.00517178,0.00004087,
 -0.00002030,-0.00010164,-0.00006727,0.00092704,0.00424784,0.00003026,0
 .00001892,0.00008182,-0.00001544,0.00005802,0.00042637,0.00885776,0.00
 682838,-0.03838625,-0.00001926,-0.00003064,0.00010319,0.00239953,0.000
 86327,0.00304109,-0.00002375,0.00002224,-0.00004756,0.00002015,0.00004
 360,0.00004420,0.00002808,-0.00043259,-0.00570452,-0.00000139,-0.00000
 158,-0.00000528,0.00012435,0.00005487,0.00005960,-0.00000201,-0.000001
 81,0.00000082,-0.00942984,-0.00785496,0.02602587,-0.00000580,-0.000213
 42,-0.00006405,0.00009823,-0.00021767,0.00009309,0.00017723,0.00016724
 ,0.00001435,-0.00045832,-0.00015904,-0.00000291,-0.00216516,-0.0037279
 5,-0.00013521,-0.00044543,0.00087917,-0.00004004,-0.00007666,-0.000201
 13,0.00000967,0.00017780,-0.00053270,0.00006109,0.00004335,0.00013536,
 0.00000337,-0.01825064,0.01294444,-0.00199809,0.00009129,-0.00002544,0
 .00000130,0.00151177,-0.00009853,-0.00010576,-0.00001949,0.00045390,-0
 .00004596,-0.00011200,0.00004073,-0.00001056,-0.29220382,0.11003861,-0
 .01923927,-0.00004626,-0.00010629,0.00001412,0.00204476,-0.00213228,0.
 00016053,-0.00002514,0.00009031,0.00000093,-0.00000536,-0.00001615,0.0
 0000153,0.00092801,-0.00012615,0.00023278,0.00000258,0.00000804,-0.000
 00082,-0.00003029,-0.00013484,0.00000735,-0.00001942,0.00000484,-0.000
 00171,0.30831232,0.00000479,-0.00002966,0.00001018,0.00010708,-0.00006
 289,0.00002935,0.00067188,0.00016773,-0.00005226,-0.00036399,0.0000235
 8,-0.00012124,-0.00349695,-0.00173997,0.00085778,-0.00023631,0.0006704
 4,-0.00001579,-0.00029898,-0.00021148,0.00001915,-0.00120842,-0.000631
 90,-0.00002855,0.00008843,0.00007345,-0.00000130,-0.01782199,0.0109017
 9,-0.00112809,0.00014408,-0.00000219,0.00001326,-0.00072587,-0.0056254
 4,0.00087608,-0.00000606,0.00015915,-0.00004187,-0.00006372,0.00011564
 ,-0.00000497,0.11123241,-0.10921297,0.01056602,-0.00006832,-0.00010922
 ,0.00000612,0.02839568,-0.00755198,0.00199474,-0.00001690,0.00000760,-
 0.00000262,0.00000574,0.00000067,-0.00000239,0.00045346,0.00075502,-0.
 00058593,-0.00001213,0.00000448,-0.00000015,0.00128690,-0.00040713,0.0
 0007491,-0.00000659,0.00000774,0.00000058,-0.11752691,0.11170031,0.000
 00642,-0.00000433,-0.00006354,0.00015283,0.00000733,-0.00007994,-0.000
 06227,-0.00007227,-0.00060799,0.00006101,-0.00006786,-0.00093100,-0.00
 016850,0.00081911,0.00918152,0.00003127,0.00007771,0.00017655,0.000022
 21,0.00003605,0.00011860,0.00014950,0.00000811,-0.00043640,0.00000174,
 -0.00001627,-0.00007265,0.00079452,0.00014260,0.00510477,-0.00002151,-
 0.00000248,0.00007631,-0.00007537,0.00086110,0.00427186,-0.00000816,0.
 00007087,0.00042298,0.00001271,0.00000150,0.00008409,-0.01953185,0.010
 59885,-0.03959949,-0.00000104,0.00001641,-0.00003933,-0.00252487,0.000
 81923,0.00287249,0.00000045,0.00001271,0.00000465,-0.00000419,-0.00000
 020,-0.00000559,0.00014729,-0.00091553,-0.00566937,0.00000051,0.000000
 55,0.00000159,-0.00011422,0.00003231,0.00005163,-0.00000031,-0.0000000
 8,0.00001457,0.02098996,-0.01213992,0.02733801,0.00002511,0.00013949,0
 .00005615,-0.00002644,0.00013288,-0.00004274,-0.00120531,0.00054492,-0
 .00008330,-0.00019738,-0.00041567,0.00002689,-0.00015149,-0.00015671,0
 .00000004,0.00027982,0.00012351,0.00002625,-0.00148723,-0.00373538,0.0
 0017175,-0.00038580,-0.00003494,0.00000728,0.00147049,-0.00070093,0.00
 003444,0.00010381,-0.00000417,0.00000239,-0.01856875,0.01638893,-0.001
 67030,0.00001452,0.00013288,-0.00001242,-0.00001659,-0.00026018,-0.000
 01656,0.00433524,-0.00318998,0.00027734,-0.00003577,-0.00010919,0.0000
 0888,-0.27085092,0.12518622,-0.01337800,-0.00010546,0.00002944,-0.0000
 0715,0.00000123,-0.00006668,-0.00000970,0.00005369,-0.00015980,0.00001
 351,-0.00000522,0.00000987,-0.00000058,0.00099471,-0.00030863,0.000121
 10,0.00000598,-0.00001312,0.00000144,0.00048232,0.00053340,-0.00001632
 ,-0.00001190,0.00000264,-0.00000051,0.28530107,0.00020681,-0.00006530,
 -0.00002138,0.00005728,-0.00002369,0.00005166,-0.00029241,0.00043376,0
 .00001230,-0.00119406,-0.00015397,-0.00006131,-0.00022151,-0.00021742,
 0.00001356,0.00043277,0.00007614,-0.00005514,-0.00287819,-0.00132472,0
 .00085959,-0.00042929,0.00011194,-0.00012232,-0.00133524,-0.00549235,0
 .00088055,0.00012926,0.00001861,0.00001586,-0.01481922,0.01179673,-0.0
 0067565,0.00010332,0.00006405,-0.00001546,-0.00022590,-0.00002008,-0.0
 0011329,0.02736133,-0.00976154,0.00138838,-0.00005210,-0.00010615,0.00
 000473,0.12605215,-0.13141771,0.00932859,-0.00006819,0.00010942,-0.000
 00178,-0.00000413,0.00010443,0.00002400,0.00122647,-0.00060486,0.00010
 647,-0.00001194,0.00000224,-0.00000029,0.00056394,0.00060799,-0.000515
 80,0.00000516,0.00000076,-0.00000094,-0.00050503,0.00101917,-0.0002881
 2,0.00000277,-0.00000191,-0.00000116,-0.13409409,0.13484897,-0.0000474
 9,0.00005963,-0.00002001,-0.00001577,-0.00000440,-0.00005302,0.0000584
 7,0.00002677,0.00060345,0.00013927,-0.00000909,-0.00075849,-0.00001571
 ,-0.00001364,0.00007291,-0.00000678,-0.00002631,-0.00060544,0.00002713
 ,0.00080231,0.00975259,0.00004303,-0.00008854,-0.00117957,0.00005797,0
 .00086674,0.00425437,0.00000900,0.00000584,0.00012460,0.00082887,-0.00
 036736,0.00572386,0.00001092,-0.00001287,-0.00012021,0.00006966,0.0000
 0131,0.00016785,-0.00229524,0.00098587,0.00310900,-0.00000256,-0.00001
 022,-0.00003581,-0.01334424,0.00934879,-0.03994027,-0.00000893,0.00001
 510,0.00010597,-0.00000458,-0.00001413,0.00001009,-0.00010033,0.000026
 79,-0.00001580,0.,-0.00000153,-0.00000349,0.00005494,-0.00049921,-0.00
 575459,0.00000042,-0.00000116,-0.00000915,0.00005337,-0.00028202,-0.00
 223604,-0.00000062,-0.00000136,-0.00001035,0.01449058,-0.01081229,0.02
 680833,-0.00002301,-0.00015080,-0.00006396,0.00003781,-0.00011760,0.00
 002946,-0.00117879,-0.00063313,-0.00000246,-0.00016631,0.00015584,-0.0
 0003229,-0.00027052,0.00041239,-0.00002540,0.00029396,-0.00010714,0.00
 005255,-0.00041567,0.00000895,0.00001829,-0.00183122,0.00366195,-0.000
 70547,0.00011037,0.00001095,0.00000008,0.00135071,0.00103331,-0.000173
 15,0.00003109,-0.00013478,0.00001849,-0.01836680,-0.01797918,0.0007896
 3,-0.00001523,0.00025894,0.00001878,-0.00004466,0.00011266,-0.00001013
 ,0.00550404,0.00393840,-0.00028892,-0.00010897,-0.00004200,-0.00000008
 ,-0.25756929,-0.13215825,0.00448701,-0.00000211,0.00006110,0.00000406,
 -0.00000608,-0.00001278,0.00000208,0.00010258,0.00019182,-0.00001403,0
 .00000552,0.00001326,-0.00000077,0.00099930,0.00035825,0.00019603,-0.0
 0001155,-0.00000329,0.,0.00048349,-0.00054527,0.00014073,-0.00002141,-
 0.00000540,-0.00000039,0.27111460,-0.00006035,-0.00008501,-0.00011620,
 -0.00024775,-0.00001535,-0.00004819,0.00020993,0.00041875,0.00002606,0
 .00022187,-0.00019299,0.00003479,0.00121852,-0.00007539,-0.00000790,-0
 .00042821,0.00003266,-0.00007691,0.00040708,0.00013442,-0.00010386,0.0
 0281519,-0.00094499,0.00103581,-0.00012352,0.00001194,0.00000684,0.001
 66238,-0.00542374,0.00090682,-0.00010053,0.00005091,-0.00001632,0.0131
 9077,0.01161166,-0.00009427,0.00024207,0.00000352,0.00024325,0.0000538
 3,-0.00009729,0.00000534,-0.02658497,-0.01094043,0.00036668,0.00005531
 ,0.00010821,-0.00000003,-0.13303525,-0.14533839,0.00502114,0.00001482,
 0.00005833,0.00000582,0.00001051,0.00000279,-0.00000068,-0.00117753,-0
 .00058939,-0.00004622,-0.00000474,0.00000139,-0.00000118,-0.00052095,0
 .00058674,-0.00058158,-0.00000360,-0.00000215,-0.00000032,0.00049235,0
 .00101008,-0.00028202,0.00000367,0.00000566,0.00000100,0.14169259,0.14
 967236,-0.00001387,0.00000091,-0.00004108,0.00000406,-0.00005763,-0.00
 002438,-0.00005121,0.00001089,0.00060143,-0.00005049,0.00006156,0.0000
 8059,-0.00007903,-0.00001065,-0.00074132,0.00003948,-0.00009395,-0.000
 57469,-0.00002056,-0.00015441,-0.00119593,-0.00063450,0.00105094,0.009
 67573,0.00002539,0.00001302,0.00010429,-0.00027294,0.00088920,0.004281
 34,0.00002254,-0.00001426,-0.00010828,-0.00190405,-0.00112301,0.005727
 42,0.00002612,0.00004586,0.00013094,-0.00001182,0.00001541,-0.00002400
 ,0.00242397,0.00144093,0.00317128,-0.00001237,-0.00001255,0.00009966,0
 .00451929,0.00503751,-0.03930808,0.00000288,-0.00000216,0.00000642,-0.
 00000308,-0.00000139,-0.00000363,0.00011060,0.00006330,-0.00003398,0.0
 0000121,-0.00000009,-0.00001059,0.00026359,-0.00055566,-0.00572197,-0.
 00000059,-0.00000026,-0.00001003,0.00005662,-0.00031892,-0.00221238,-0
 .00000084,0.00000042,0.00001252,-0.00444105,-0.00628325,0.02611786,0.0
 0135326,0.00078507,0.00250072,0.00062141,-0.00102335,-0.00016707,0.000
 00177,-0.00004390,0.00001045,-0.00000957,-0.00007422,0.00003856,-0.000
 02231,0.00000455,0.00004786,0.00024317,0.00001848,-0.00003519,-0.00000
 419,-0.00000962,-0.00001659,0.00002147,0.00002893,-0.00002160,0.000007
 53,0.00004323,-0.00005272,-0.00001413,0.00002807,-0.00003480,0.0000000
 9,-0.00000790,0.00000682,0.00000434,0.00000531,0.00000782,-0.00003600,
 0.00127265,-0.00026996,-0.00000337,0.00000492,-0.00000948,-0.00001082,
 -0.00002217,0.00001754,-0.00001128,0.00000847,0.00000606,-0.00000786,0
 .00001129,-0.00000168,-0.11850304,-0.04238964,-0.11497150,0.00000125,0
 .00000022,0.00006715,0.00003167,0.00003091,-0.00000150,-0.00000102,-0.
 00000347,-0.00000008,0.00000175,-0.00000313,-0.00000129,-0.00000641,0.
 00000615,0.00000289,-0.00000309,0.00000303,-0.00000440,0.00000458,-0.0
 0000499,0.00000040,-0.00000441,-0.00000620,-0.00000202,0.11876986,-0.0
 1977790,-0.02720927,-0.03408945,-0.00026317,0.00275040,-0.00040909,0.0
 0002902,-0.00008254,-0.00002950,-0.00014421,-0.00008962,0.00004486,0.0
 0023539,-0.00038392,0.00007885,-0.00080971,-0.00029221,-0.00124243,-0.
 00001823,0.00003571,0.00007114,-0.00009177,0.00003472,0.00009319,0.000
 03746,-0.00004678,0.00000280,0.00001186,-0.00001572,-0.00002127,-0.000
 00967,0.00000201,-0.00000626,0.00002637,-0.00003240,-0.00000379,0.0028
 5458,-0.00582108,0.00477517,0.00005123,0.00001040,0.00002191,-0.000035
 78,0.00001364,-0.00000142,0.00001573,0.00000901,-0.00000771,0.00000147
 ,0.00002197,-0.00000537,-0.03580784,-0.06595696,-0.06093848,-0.0000292
 2,0.00000294,-0.00006048,0.00001256,0.00001102,-0.00001012,0.00000484,
 -0.00000661,0.00000348,-0.00000905,-0.00001066,0.00000324,0.00002054,-
 0.00000494,-0.00000532,-0.00001154,-0.00000366,-0.00000026,0.00000688,
 -0.00000153,-0.00000207,-0.00000665,-0.00000275,0.00000140,0.04461006,
 0.08793316,0.00231135,0.00110901,0.00371045,-0.00013534,-0.00174153,0.
 00042876,0.00001217,-0.00004087,0.00001470,-0.00008105,-0.00002922,-0.
 00005692,0.00007198,-0.00005245,0.00000344,-0.00005235,-0.00003182,0.0
 0022691,-0.00000356,0.00004013,-0.00002815,-0.00000584,0.00001676,-0.0
 0000084,0.00005601,-0.00005181,0.00006539,-0.00003053,0.00002306,0.000
 00930,0.00000692,0.00000703,0.00000232,0.00000143,-0.00001319,-0.00000
 464,-0.00025882,0.00230403,-0.00016897,0.00000055,0.00000024,0.0000001
 8,0.00000713,-0.00000235,-0.00000373,0.00001086,-0.00000358,0.00000358
 ,0.00000667,0.00000329,0.00000659,-0.11497945,-0.07218445,-0.24715063,
 -0.00006558,-0.00002892,-0.00008744,0.00003524,-0.00000887,-0.00000921
 ,0.00000292,-0.00000374,-0.00000012,-0.00000113,-0.00000417,-0.0000014
 5,0.00002002,-0.00000887,-0.00000994,-0.00000331,0.00000103,-0.0000020
 9,0.00000444,-0.00000307,-0.00000143,-0.00000410,-0.00000583,-0.000000
 43,0.12438000,0.07633447,0.25794827,0.00239985,-0.00125122,-0.00503608
 ,-0.00043894,0.00202233,-0.00071741,-0.00000777,0.00000573,-0.00000350
 ,0.00007979,0.00006515,-0.00001610,-0.00001892,-0.00000658,-0.00003205
 ,-0.00020669,0.00002886,-0.00011900,-0.00002000,-0.00001887,0.00001073
 ,-0.00000383,-0.00000469,0.00001323,0.00006402,0.00012898,0.00000677,0
 .00000684,0.00001026,-0.00000758,0.00000198,-0.00000928,-0.00000671,0.
 00000072,0.00000436,-0.00000140,0.00194443,-0.00120935,0.00320425,-0.0
 0001931,-0.00006432,-0.00000656,0.00000325,-0.00000417,-0.00003331,0.0
 0000265,0.00000391,0.00000758,-0.00000036,0.00000290,0.00000715,-0.108
 74193,-0.03903201,0.10630409,0.00002330,-0.00013510,0.00005473,-0.0000
 0840,0.00001061,0.00005537,-0.00000463,0.00000113,0.00000369,0.0000011
 9,-0.00000014,-0.00000037,-0.00000794,0.00000742,-0.00000555,0.0000018
 1,0.00000226,0.00000448,0.00000064,-0.00000906,0.00000026,-0.00000068,
 0.00000053,0.00000345,0.00853540,0.00608076,-0.01326707,0.10911655,-0.
 01911726,-0.03080450,0.02655965,-0.00159127,0.00139734,-0.00257929,-0.
 00002235,-0.00010182,-0.00002795,-0.00024137,-0.00018807,-0.00009211,0
 .00020154,0.00009404,0.00005075,0.00091621,-0.00019875,-0.00074948,0.0
 0002547,0.00011814,0.00007919,0.00008635,0.00003157,0.00006114,-0.0000
 5992,-0.00021748,-0.00003179,-0.00002365,-0.00002143,-0.00001958,-0.00
 001221,0.00000399,0.00000479,-0.00000295,0.00000665,-0.00000503,0.0034
 0514,0.00162320,0.00792227,0.00005935,0.00007029,-0.00002158,-0.000028
 30,0.00004375,0.00000997,-0.00000272,0.00001913,0.00000121,0.00001305,
 0.00001466,-0.00001048,-0.03535348,-0.07145315,0.06316132,-0.00000257,
 -0.00005438,0.00007320,0.00002177,0.00002286,-0.00001787,0.00000762,-0
 .00000760,0.00000185,0.00000078,-0.00000429,0.00000174,0.00002549,-0.0
 0001071,0.00000001,-0.00001018,-0.00000136,0.00000091,0.00000816,0.000
 00577,0.00000190,-0.00000774,-0.00000419,0.00000040,0.00580764,0.00460
 906,-0.00718987,0.04242191,0.08989546,-0.00330148,0.00434152,0.0049935
 6,-0.00014976,-0.00022751,0.00019911,-0.00003874,0.00002651,-0.0000229
 4,0.00003571,-0.00016699,0.00004515,-0.00005730,0.00013801,-0.00000120
 ,0.00070851,0.00018673,-0.00028365,0.00006272,-0.00002848,0.00004366,0
 .00002170,-0.00002022,0.00003035,-0.00010707,0.00007145,-0.00004379,0.
 00003276,-0.00004271,-0.00000308,-0.00001445,-0.00002463,0.00001215,-0
 .00000636,0.00001377,-0.00000519,-0.00112511,-0.00207869,-0.00000462,0
 .00001180,0.00000089,0.00001288,-0.00001604,0.00001765,0.00000205,-0.0
 0001431,0.00000399,-0.00000906,-0.00000368,-0.00000580,-0.00000577,0.1
 0842930,0.07046332,-0.24136629,0.00000446,0.00024764,-0.00001485,-0.00
 003476,0.00001497,-0.00000239,0.00000094,-0.00000037,-0.00000145,0.000
 00145,0.00000346,-0.00000059,-0.00001927,0.00001018,0.00000119,-0.0000
 0001,-0.00000168,-0.00000012,-0.00000194,0.00000110,-0.00000037,0.0000
 0261,0.00000550,-0.00000079,0.01278535,0.00693520,-0.01714663,-0.11578
 498,-0.07903308,0.25323460,0.00752959,0.00471371,-0.00018020,0.0004534
 4,-0.00119266,0.00032354,0.00006066,0.00002355,0.00001640,-0.00003565,
 0.00011390,-0.00004827,0.00000374,-0.00011010,-0.00004264,-0.00056656,
 0.00014505,0.00051247,-0.00004810,-0.00003464,0.00000202,-0.00005250,0
 .00000101,-0.00006006,0.00000572,-0.00008979,0.00004694,0.00001025,0.0
 0001468,0.00002693,0.00000635,0.00002838,-0.00000464,0.00001305,-0.000
 01113,0.00001816,-0.00035412,-0.00118625,-0.00239995,0.00002449,0.0000
 3448,0.00000677,0.00000355,-0.00000738,-0.00000191,0.00001063,-0.00000
 390,0.00000220,0.00000470,0.00000710,-0.00000150,-0.30317074,0.0793839
 6,0.00235525,0.00007099,-0.00005867,-0.00006648,-0.00000330,-0.0000013
 3,0.00000905,0.00000002,0.00000422,-0.00000228,-0.00000212,0.00000082,
 -0.00000327,0.00000883,-0.00000814,-0.00000572,0.00000614,0.00000003,0
 .00000159,-0.00000354,0.00000947,-0.00000167,0.00000324,0.00000223,-0.
 00000080,-0.01096004,0.00301598,0.00196040,-0.01270301,0.00347551,-0.0
 0142204,0.31968429,0.03268958,-0.03081594,-0.00412657,-0.00150317,0.00
 147315,-0.00272099,-0.00002015,-0.00004315,0.00001927,-0.00008327,0.00
 019984,-0.00005486,0.00026176,-0.00029585,-0.00000691,-0.00110386,-0.0
 0006096,0.00041995,-0.00000587,0.00005996,-0.00004530,-0.00009730,0.00
 003065,-0.00005027,0.00019385,0.00002956,-0.00005694,0.00003247,-0.000
 08719,0.00007255,0.00003770,-0.00001734,0.00000828,0.00001360,-0.00001
 260,0.00001853,0.00535482,0.00148152,0.00706248,-0.00005704,-0.0000175
 6,-0.00001310,-0.00005106,0.00002531,0.00002386,-0.00000684,-0.0000359
 2,0.00002327,-0.00001051,0.00000397,-0.00001159,0.07089068,-0.07010174
 ,-0.00046599,-0.00012542,-0.00014721,0.00006815,-0.00000315,-0.0000137
 4,-0.00008094,0.00000309,-0.00000541,-0.00000113,-0.00001041,-0.000010
 58,0.00000091,0.00002062,-0.00000592,-0.00001410,-0.00001752,-0.000005
 93,-0.00000295,0.00000659,-0.00001443,0.00000417,-0.00000640,0.0000026
 1,-0.00000356,-0.00908040,0.00452662,0.00156554,-0.00905230,0.00511181
 ,-0.00085172,-0.08827010,0.08874649,-0.00178931,0.00092036,-0.00051051
 ,-0.00027454,0.00160928,-0.00063756,0.00001125,0.00002569,-0.00001309,
 0.00001570,0.00009045,-0.00005168,-0.00000632,-0.00003210,-0.00005039,
 -0.00035093,0.00005537,0.00007362,-0.00003393,-0.00002766,0.00002923,-
 0.00002246,0.00000107,0.00000244,-0.00001124,0.00005276,0.00004570,0.0
 0003718,-0.00004629,-0.00001720,0.00000764,0.00000603,-0.00000455,0.00
 000284,0.00000321,-0.00000433,0.00197373,-0.00191515,0.00238780,-0.000
 01339,0.00000471,0.00000159,-0.00000112,0.00001351,-0.00001439,-0.0000
 0336,-0.00000786,-0.00000083,0.00000250,-0.00000005,0.00000488,0.00046
 012,-0.00035661,-0.04866309,-0.00000051,0.00008717,-0.00005310,-0.0000
 3692,-0.00003235,0.00004489,-0.00000293,0.00000339,0.00000209,-0.00000
 119,0.00000236,0.00000164,-0.00000452,0.00000335,-0.00000313,0.0000016
 4,-0.00000215,0.00001060,-0.00000210,0.00000080,-0.00000149,0.00000240
 ,0.00000570,0.00000208,-0.02428178,0.00846730,0.00225273,0.02536186,-0
 .00815221,0.00033807,-0.00104029,-0.00078007,0.04482798\\-0.00000570,-
 0.00000719,-0.00000030,0.00000320,-0.00000400,0.00000173,0.00000692,-0
 .00000423,0.00000045,-0.00000849,-0.00001058,0.00000212,0.00000055,-0.
 00001581,0.00000103,0.00000485,0.00000704,-0.00000397,-0.00000104,0.00
 000643,-0.00000261,-0.00000740,0.00001225,-0.00000369,0.00000412,0.000
 00532,0.,-0.00000012,0.00000301,0.00000188,0.00000748,-0.00000066,0.00
 000211,-0.00000138,-0.00000230,0.00000194,0.00000188,0.00000396,0.0000
 0285,-0.00000082,-0.00000015,-0.00000125,-0.00000057,-0.00000201,0.000
 00028,-0.00000314,0.00000055,0.00000052,0.00000436,-0.00000079,0.00000
 019,0.00000208,0.00001157,-0.00000284,-0.00000136,0.00000112,0.0000000
 9,-0.00000144,-0.00000167,-0.00000008,0.00000037,0.00000109,0.00000051
 ,0.00000086,-0.00000027,0.00000060,-0.00000054,0.00000226,-0.00000022,
 0.00000051,-0.00000173,-0.00000094,0.00000023,0.00000054,-0.00000114,0
 .00000105,-0.00000226,0.00000026,-0.00000116,-0.00000033,-0.00000028,-
 0.00000387,-0.00000070,-0.00000014,-0.00000145,-0.00000048,0.00000091\
 \\@
 The archive entry for this job was punched.


 ONE OF THE BENEFITS OF A COLLEGE EDUCATION
 IS TO SHOW THE BOY ITS LITTLE AVAIL 
                                    EMERSON IN 'CULTURE'
 Job cpu time:       0 days  6 hours 57 minutes  8.8 seconds.
 Elapsed time:       0 days  0 hours 16 minutes 14.0 seconds.
 File lengths (MBytes):  RWF=    571 Int=      0 D2E=      0 Chk=     19 Scr=      1
 Normal termination of Gaussian 16 at Tue Dec  5 10:25:59 2023.
