 Entering Gaussian System, Link 0=g16
 Input=/home/exlonk/in_progress/3533.inp
 Output=/home/exlonk/in_progress/3533.log
 Initial command:
 /opt/gaussian/g16-c01/g16/l1.exe "/lustre/tmp/slurm/2190330/Gau-565839.inp" -scrdir="/lustre/tmp/slurm/2190330/"
 Default CPUs for threads: 0-3,7-9,13-16,19-20,24-27,31-33,37-40,43-44
 Default is to use a total of  26 processors:
                               26 via shared-memory
                                1 via Linda
 Entering Link 1 = /opt/gaussian/g16-c01/g16/l1.exe PID=    565840.
  
 Copyright (c) 1988-2019, Gaussian, Inc.  All Rights Reserved.
  
 This is part of the Gaussian(R) 16 program.  It is based on
 the Gaussian(R) 09 system (copyright 2009, Gaussian, Inc.),
 the Gaussian(R) 03 system (copyright 2003, Gaussian, Inc.),
 the Gaussian(R) 98 system (copyright 1998, Gaussian, Inc.),
 the Gaussian(R) 94 system (copyright 1995, Gaussian, Inc.),
 the Gaussian 92(TM) system (copyright 1992, Gaussian, Inc.),
 the Gaussian 90(TM) system (copyright 1990, Gaussian, Inc.),
 the Gaussian 88(TM) system (copyright 1988, Gaussian, Inc.),
 the Gaussian 86(TM) system (copyright 1986, Carnegie Mellon
 University), and the Gaussian 82(TM) system (copyright 1983,
 Carnegie Mellon University). Gaussian is a federally registered
 trademark of Gaussian, Inc.
  
 This software contains proprietary and confidential information,
 including trade secrets, belonging to Gaussian, Inc.
  
 This software is provided under written license and may be
 used, copied, transmitted, or stored only in accord with that
 written license.
  
 The following legend is applicable only to US Government
 contracts under FAR:
  
                    RESTRICTED RIGHTS LEGEND
  
 Use, reproduction and disclosure by the US Government is
 subject to restrictions as set forth in subparagraphs (a)
 and (c) of the Commercial Computer Software - Restricted
 Rights clause in FAR 52.227-19.
  
 Gaussian, Inc.
 340 Quinnipiac St., Bldg. 40, Wallingford CT 06492
  
  
 ---------------------------------------------------------------
 Warning -- This program may not be used in any manner that
 competes with the business of Gaussian, Inc. or will provide
 assistance to any competitor of Gaussian, Inc.  The licensee
 of this program is prohibited from giving any competitor of
 Gaussian, Inc. access to this program.  By using this program,
 the user acknowledges that Gaussian, Inc. is engaged in the
 business of creating and licensing software in the field of
 computational chemistry and represents and warrants to the
 licensee that it is not a competitor of Gaussian, Inc. and that
 it will not use this program in any manner prohibited above.
 ---------------------------------------------------------------
  

 Cite this work as:
 Gaussian 16, Revision C.01,
 M. J. Frisch, G. W. Trucks, H. B. Schlegel, G. E. Scuseria, 
 M. A. Robb, J. R. Cheeseman, G. Scalmani, V. Barone, 
 G. A. Petersson, H. Nakatsuji, X. Li, M. Caricato, A. V. Marenich, 
 J. Bloino, B. G. Janesko, R. Gomperts, B. Mennucci, H. P. Hratchian, 
 J. V. Ortiz, A. F. Izmaylov, J. L. Sonnenberg, D. Williams-Young, 
 F. Ding, F. Lipparini, F. Egidi, J. Goings, B. Peng, A. Petrone, 
 T. Henderson, D. Ranasinghe, V. G. Zakrzewski, J. Gao, N. Rega, 
 G. Zheng, W. Liang, M. Hada, M. Ehara, K. Toyota, R. Fukuda, 
 J. Hasegawa, M. Ishida, T. Nakajima, Y. Honda, O. Kitao, H. Nakai, 
 T. Vreven, K. Throssell, J. A. Montgomery, Jr., J. E. Peralta, 
 F. Ogliaro, M. J. Bearpark, J. J. Heyd, E. N. Brothers, K. N. Kudin, 
 V. N. Staroverov, T. A. Keith, R. Kobayashi, J. Normand, 
 K. Raghavachari, A. P. Rendell, J. C. Burant, S. S. Iyengar, 
 J. Tomasi, M. Cossi, J. M. Millam, M. Klene, C. Adamo, R. Cammi, 
 J. W. Ochterski, R. L. Martin, K. Morokuma, O. Farkas, 
 J. B. Foresman, and D. J. Fox, Gaussian, Inc., Wallingford CT, 2019.
 
 ******************************************
 Gaussian 16:  EM64L-G16RevC.01  3-Jul-2019
                 6-Dec-2023 
 ******************************************
 %nproc=26
 Will use up to   26 processors via shared memory.
 %mem=16GB
 %chk=/home/exlonk/in_progress/3533.chk
 ------------------------------
 #p MN15/6-311++G(d,p) opt freq
 ------------------------------
 1/18=20,19=15,26=3,38=1/1,3;
 2/9=110,12=2,17=6,18=5,40=1/2;
 3/5=4,6=6,7=1111,11=2,25=1,30=1,71=1,74=-73/1,2,3;
 4//1;
 5/5=2,38=5/2;
 6/7=2,8=2,9=2,10=2,28=1/1;
 7//1,2,3,16;
 1/18=20,19=15,26=3/3(2);
 2/9=110/2;
 99//99;
 2/9=110/2;
 3/5=4,6=6,7=1111,11=2,25=1,30=1,71=1,74=-73/1,2,3;
 4/5=5,16=3,69=1/1;
 5/5=2,38=5/2;
 7//1,2,3,16;
 1/18=20,19=15,26=3/3(-5);
 2/9=110/2;
 6/7=2,8=2,9=2,10=2,19=2,28=1/1;
 99/9=1/99;
 Leave Link    1 at Wed Dec  6 14:59:58 2023, MaxMem=  2147483648 cpu:               4.6 elap:               0.2
 (Enter /opt/gaussian/g16-c01/g16/l101.exe)
 ---------------
 name file: 3533
 ---------------
 Symbolic Z-matrix:
 Charge =  0 Multiplicity = 1
 N                     4.9075    0.2009   -0.0177 
 C                     3.5099    0.0129   -0.0034 
 C                     0.7641   -0.3562    0.0247 
 C                     2.6651    1.0259   -0.4574 
 C                     2.9722   -1.186     0.4648 
 C                     1.2827    0.8401   -0.4431 
 C                     1.5897   -1.3718    0.4789 
 C                    -0.6962   -0.5526    0.0397 
 C                     5.4714    1.527     0.1391 
 C                     5.7988   -0.9312   -0.1757 
 C                    -3.0589    0.2449   -0.0039 
 C                    -1.6173    0.439     0.0006 
 C                    -3.5957   -0.9859   -0.3814 
 C                    -3.9046    1.2896    0.3692 
 C                    -4.978    -1.1721   -0.3861 
 C                    -5.287     1.1033    0.3647 
 C                    -5.8237   -0.1276   -0.013 
 H                     3.0526    1.9643   -0.844 
 H                     3.6007   -1.9901    0.8368 
 H                     0.6653    1.6447   -0.8293 
 H                     1.1859   -2.3099    0.8505 
 H                    -1.0033   -1.5931    0.1042 
 H                     5.4227    2.0833   -0.8028 
 H                     6.5249    1.476     0.4369 
 H                     4.9512    2.0945    0.9191 
 H                     6.7948   -0.6075   -0.4982 
 H                     5.4324   -1.6273   -0.9387 
 H                     5.9177   -1.4668    0.772 
 H                    -1.3059    1.4799   -0.0109 
 H                    -2.9798   -1.8212   -0.7011 
 H                    -3.5052    2.2558    0.6681 
 H                    -5.3969   -2.1287   -0.685 
 H                    -5.9457    1.9165    0.6552 
 H                    -6.9001   -0.2722   -0.0178 
 
 ITRead=  0  0  0  0  0  0  0  0  0  0  0  0  0  0  0  0  0  0  0  0
 ITRead=  0  0  0  0  0  0  0  0  0  0  0  0  0  0
 MicOpt= -1 -1 -1 -1 -1 -1 -1 -1 -1 -1 -1 -1 -1 -1 -1 -1 -1 -1 -1 -1
 MicOpt= -1 -1 -1 -1 -1 -1 -1 -1 -1 -1 -1 -1 -1 -1
 NAtoms=     34 NQM=       34 NQMF=       0 NMMI=      0 NMMIF=      0
                NMic=       0 NMicF=      0.
                    Isotopes and Nuclear Properties:
 (Nuclear quadrupole moments (NQMom) in fm**2, nuclear magnetic moments (NMagM)
  in nuclear magnetons)

  Atom         1           2           3           4           5           6           7           8           9          10
 IAtWgt=          14          12          12          12          12          12          12          12          12          12
 AtmWgt=  14.0030740  12.0000000  12.0000000  12.0000000  12.0000000  12.0000000  12.0000000  12.0000000  12.0000000  12.0000000
 NucSpn=           2           0           0           0           0           0           0           0           0           0
 AtZEff=  -0.0000000  -0.0000000  -0.0000000  -0.0000000  -0.0000000  -0.0000000  -0.0000000  -0.0000000  -0.0000000  -0.0000000
 NQMom=    2.0440000   0.0000000   0.0000000   0.0000000   0.0000000   0.0000000   0.0000000   0.0000000   0.0000000   0.0000000
 NMagM=    0.4037610   0.0000000   0.0000000   0.0000000   0.0000000   0.0000000   0.0000000   0.0000000   0.0000000   0.0000000
 AtZNuc=   7.0000000   6.0000000   6.0000000   6.0000000   6.0000000   6.0000000   6.0000000   6.0000000   6.0000000   6.0000000

  Atom        11          12          13          14          15          16          17          18          19          20
 IAtWgt=          12          12          12          12          12          12          12           1           1           1
 AtmWgt=  12.0000000  12.0000000  12.0000000  12.0000000  12.0000000  12.0000000  12.0000000   1.0078250   1.0078250   1.0078250
 NucSpn=           0           0           0           0           0           0           0           1           1           1
 AtZEff=  -0.0000000  -0.0000000  -0.0000000  -0.0000000  -0.0000000  -0.0000000  -0.0000000  -0.0000000  -0.0000000  -0.0000000
 NQMom=    0.0000000   0.0000000   0.0000000   0.0000000   0.0000000   0.0000000   0.0000000   0.0000000   0.0000000   0.0000000
 NMagM=    0.0000000   0.0000000   0.0000000   0.0000000   0.0000000   0.0000000   0.0000000   2.7928460   2.7928460   2.7928460
 AtZNuc=   6.0000000   6.0000000   6.0000000   6.0000000   6.0000000   6.0000000   6.0000000   1.0000000   1.0000000   1.0000000

  Atom        21          22          23          24          25          26          27          28          29          30
 IAtWgt=           1           1           1           1           1           1           1           1           1           1
 AtmWgt=   1.0078250   1.0078250   1.0078250   1.0078250   1.0078250   1.0078250   1.0078250   1.0078250   1.0078250   1.0078250
 NucSpn=           1           1           1           1           1           1           1           1           1           1
 AtZEff=  -0.0000000  -0.0000000  -0.0000000  -0.0000000  -0.0000000  -0.0000000  -0.0000000  -0.0000000  -0.0000000  -0.0000000
 NQMom=    0.0000000   0.0000000   0.0000000   0.0000000   0.0000000   0.0000000   0.0000000   0.0000000   0.0000000   0.0000000
 NMagM=    2.7928460   2.7928460   2.7928460   2.7928460   2.7928460   2.7928460   2.7928460   2.7928460   2.7928460   2.7928460
 AtZNuc=   1.0000000   1.0000000   1.0000000   1.0000000   1.0000000   1.0000000   1.0000000   1.0000000   1.0000000   1.0000000

  Atom        31          32          33          34
 IAtWgt=           1           1           1           1
 AtmWgt=   1.0078250   1.0078250   1.0078250   1.0078250
 NucSpn=           1           1           1           1
 AtZEff=  -0.0000000  -0.0000000  -0.0000000  -0.0000000
 NQMom=    0.0000000   0.0000000   0.0000000   0.0000000
 NMagM=    2.7928460   2.7928460   2.7928460   2.7928460
 AtZNuc=   1.0000000   1.0000000   1.0000000   1.0000000
 Leave Link  101 at Wed Dec  6 14:59:58 2023, MaxMem=  2147483648 cpu:               8.9 elap:               0.4
 (Enter /opt/gaussian/g16-c01/g16/l103.exe)

 GradGradGradGradGradGradGradGradGradGradGradGradGradGradGradGradGradGrad
 Berny optimization.
 Initialization pass.
                           ----------------------------
                           !    Initial Parameters    !
                           ! (Angstroms and Degrees)  !
 --------------------------                            --------------------------
 ! Name  Definition              Value          Derivative Info.                !
 --------------------------------------------------------------------------------
 ! R1    R(1,2)                  1.4103         estimate D2E/DX2                !
 ! R2    R(1,9)                  1.4495         estimate D2E/DX2                !
 ! R3    R(1,10)                 1.4495         estimate D2E/DX2                !
 ! R4    R(2,4)                  1.395          estimate D2E/DX2                !
 ! R5    R(2,5)                  1.3949         estimate D2E/DX2                !
 ! R6    R(3,6)                  1.3852         estimate D2E/DX2                !
 ! R7    R(3,7)                  1.3854         estimate D2E/DX2                !
 ! R8    R(3,8)                  1.4735         estimate D2E/DX2                !
 ! R9    R(4,6)                  1.3949         estimate D2E/DX2                !
 ! R10   R(4,18)                 1.0864         estimate D2E/DX2                !
 ! R11   R(5,7)                  1.395          estimate D2E/DX2                !
 ! R12   R(5,19)                 1.0863         estimate D2E/DX2                !
 ! R13   R(6,20)                 1.0852         estimate D2E/DX2                !
 ! R14   R(7,21)                 1.0868         estimate D2E/DX2                !
 ! R15   R(8,12)                 1.354          estimate D2E/DX2                !
 ! R16   R(8,22)                 1.0868         estimate D2E/DX2                !
 ! R17   R(9,23)                 1.095          estimate D2E/DX2                !
 ! R18   R(9,24)                 1.096          estimate D2E/DX2                !
 ! R19   R(9,25)                 1.0959         estimate D2E/DX2                !
 ! R20   R(10,26)                1.0958         estimate D2E/DX2                !
 ! R21   R(10,27)                1.0959         estimate D2E/DX2                !
 ! R22   R(10,28)                1.0951         estimate D2E/DX2                !
 ! R23   R(11,12)                1.4546         estimate D2E/DX2                !
 ! R24   R(11,13)                1.3948         estimate D2E/DX2                !
 ! R25   R(11,14)                1.3949         estimate D2E/DX2                !
 ! R26   R(12,29)                1.0865         estimate D2E/DX2                !
 ! R27   R(13,15)                1.3948         estimate D2E/DX2                !
 ! R28   R(13,30)                1.0859         estimate D2E/DX2                !
 ! R29   R(14,16)                1.3949         estimate D2E/DX2                !
 ! R30   R(14,31)                1.0874         estimate D2E/DX2                !
 ! R31   R(15,17)                1.3948         estimate D2E/DX2                !
 ! R32   R(15,32)                1.0862         estimate D2E/DX2                !
 ! R33   R(16,17)                1.3949         estimate D2E/DX2                !
 ! R34   R(16,33)                1.0861         estimate D2E/DX2                !
 ! R35   R(17,34)                1.0861         estimate D2E/DX2                !
 ! A1    A(2,1,9)              120.4239         estimate D2E/DX2                !
 ! A2    A(2,1,10)             120.4224         estimate D2E/DX2                !
 ! A3    A(9,1,10)             119.1507         estimate D2E/DX2                !
 ! A4    A(1,2,4)              120.0038         estimate D2E/DX2                !
 ! A5    A(1,2,5)              120.0002         estimate D2E/DX2                !
 ! A6    A(4,2,5)              119.996          estimate D2E/DX2                !
 ! A7    A(6,3,7)              121.3787         estimate D2E/DX2                !
 ! A8    A(6,3,8)              119.3114         estimate D2E/DX2                !
 ! A9    A(7,3,8)              119.3098         estimate D2E/DX2                !
 ! A10   A(2,4,6)              120.0072         estimate D2E/DX2                !
 ! A11   A(2,4,18)             121.8075         estimate D2E/DX2                !
 ! A12   A(6,4,18)             118.1771         estimate D2E/DX2                !
 ! A13   A(2,5,7)              119.9931         estimate D2E/DX2                !
 ! A14   A(2,5,19)             121.8807         estimate D2E/DX2                !
 ! A15   A(7,5,19)             118.1219         estimate D2E/DX2                !
 ! A16   A(3,6,4)              119.3084         estimate D2E/DX2                !
 ! A17   A(3,6,20)             123.194          estimate D2E/DX2                !
 ! A18   A(4,6,20)             117.4782         estimate D2E/DX2                !
 ! A19   A(3,7,5)              119.3165         estimate D2E/DX2                !
 ! A20   A(3,7,21)             121.5633         estimate D2E/DX2                !
 ! A21   A(5,7,21)             119.1196         estimate D2E/DX2                !
 ! A22   A(3,8,12)             125.1896         estimate D2E/DX2                !
 ! A23   A(3,8,22)             114.0951         estimate D2E/DX2                !
 ! A24   A(12,8,22)            120.7073         estimate D2E/DX2                !
 ! A25   A(1,9,23)             110.7585         estimate D2E/DX2                !
 ! A26   A(1,9,24)             111.1476         estimate D2E/DX2                !
 ! A27   A(1,9,25)             111.4733         estimate D2E/DX2                !
 ! A28   A(23,9,24)            107.4651         estimate D2E/DX2                !
 ! A29   A(23,9,25)            109.1492         estimate D2E/DX2                !
 ! A30   A(24,9,25)            106.677          estimate D2E/DX2                !
 ! A31   A(1,10,26)            111.1162         estimate D2E/DX2                !
 ! A32   A(1,10,27)            111.4944         estimate D2E/DX2                !
 ! A33   A(1,10,28)            110.7591         estimate D2E/DX2                !
 ! A34   A(26,10,27)           106.6555         estimate D2E/DX2                !
 ! A35   A(26,10,28)           107.4872         estimate D2E/DX2                !
 ! A36   A(27,10,28)           109.1581         estimate D2E/DX2                !
 ! A37   A(12,11,13)           119.9994         estimate D2E/DX2                !
 ! A38   A(12,11,14)           120.0055         estimate D2E/DX2                !
 ! A39   A(13,11,14)           119.9951         estimate D2E/DX2                !
 ! A40   A(8,12,11)            125.21           estimate D2E/DX2                !
 ! A41   A(8,12,29)            120.46           estimate D2E/DX2                !
 ! A42   A(11,12,29)           114.32           estimate D2E/DX2                !
 ! A43   A(11,13,15)           120.0076         estimate D2E/DX2                !
 ! A44   A(11,13,30)           122.6937         estimate D2E/DX2                !
 ! A45   A(15,13,30)           117.284          estimate D2E/DX2                !
 ! A46   A(11,14,16)           119.9965         estimate D2E/DX2                !
 ! A47   A(11,14,31)           121.0845         estimate D2E/DX2                !
 ! A48   A(16,14,31)           118.9189         estimate D2E/DX2                !
 ! A49   A(13,15,17)           120.0021         estimate D2E/DX2                !
 ! A50   A(13,15,32)           120.0452         estimate D2E/DX2                !
 ! A51   A(17,15,32)           119.952          estimate D2E/DX2                !
 ! A52   A(14,16,17)           120.0019         estimate D2E/DX2                !
 ! A53   A(14,16,33)           120.0127         estimate D2E/DX2                !
 ! A54   A(17,16,33)           119.9854         estimate D2E/DX2                !
 ! A55   A(15,17,16)           119.9968         estimate D2E/DX2                !
 ! A56   A(15,17,34)           120.003          estimate D2E/DX2                !
 ! A57   A(16,17,34)           120.0002         estimate D2E/DX2                !
 ! D1    D(9,1,2,4)             29.9894         estimate D2E/DX2                !
 ! D2    D(9,1,2,5)           -150.007          estimate D2E/DX2                !
 ! D3    D(10,1,2,4)          -150.643          estimate D2E/DX2                !
 ! D4    D(10,1,2,5)            29.3606         estimate D2E/DX2                !
 ! D5    D(2,1,9,23)           -79.4879         estimate D2E/DX2                !
 ! D6    D(2,1,9,24)           161.1218         estimate D2E/DX2                !
 ! D7    D(2,1,9,25)            42.2524         estimate D2E/DX2                !
 ! D8    D(10,1,9,23)          101.1365         estimate D2E/DX2                !
 ! D9    D(10,1,9,24)          -18.2538         estimate D2E/DX2                !
 ! D10   D(10,1,9,25)         -137.1232         estimate D2E/DX2                !
 ! D11   D(2,1,10,26)          161.0232         estimate D2E/DX2                !
 ! D12   D(2,1,10,27)           42.1878         estimate D2E/DX2                !
 ! D13   D(2,1,10,28)          -79.5788         estimate D2E/DX2                !
 ! D14   D(9,1,10,26)          -19.6012         estimate D2E/DX2                !
 ! D15   D(9,1,10,27)         -138.4366         estimate D2E/DX2                !
 ! D16   D(9,1,10,28)           99.7968         estimate D2E/DX2                !
 ! D17   D(1,2,4,6)           -179.9904         estimate D2E/DX2                !
 ! D18   D(1,2,4,18)             1.0724         estimate D2E/DX2                !
 ! D19   D(5,2,4,6)              0.006          estimate D2E/DX2                !
 ! D20   D(5,2,4,18)          -178.9313         estimate D2E/DX2                !
 ! D21   D(1,2,5,7)            179.999          estimate D2E/DX2                !
 ! D22   D(1,2,5,19)             0.7723         estimate D2E/DX2                !
 ! D23   D(4,2,5,7)              0.0026         estimate D2E/DX2                !
 ! D24   D(4,2,5,19)          -179.2241         estimate D2E/DX2                !
 ! D25   D(7,3,6,4)              0.0143         estimate D2E/DX2                !
 ! D26   D(7,3,6,20)           178.366          estimate D2E/DX2                !
 ! D27   D(8,3,6,4)           -179.9934         estimate D2E/DX2                !
 ! D28   D(8,3,6,20)            -1.6417         estimate D2E/DX2                !
 ! D29   D(6,3,7,5)             -0.0058         estimate D2E/DX2                !
 ! D30   D(6,3,7,21)           179.7348         estimate D2E/DX2                !
 ! D31   D(8,3,7,5)           -179.998          estimate D2E/DX2                !
 ! D32   D(8,3,7,21)            -0.2574         estimate D2E/DX2                !
 ! D33   D(6,3,8,12)           -19.9954         estimate D2E/DX2                !
 ! D34   D(6,3,8,22)           161.0343         estimate D2E/DX2                !
 ! D35   D(7,3,8,12)           159.997          estimate D2E/DX2                !
 ! D36   D(7,3,8,22)           -18.9732         estimate D2E/DX2                !
 ! D37   D(2,4,6,3)             -0.0143         estimate D2E/DX2                !
 ! D38   D(2,4,6,20)          -178.4596         estimate D2E/DX2                !
 ! D39   D(18,4,6,3)           178.9612         estimate D2E/DX2                !
 ! D40   D(18,4,6,20)            0.5158         estimate D2E/DX2                !
 ! D41   D(2,5,7,3)             -0.0028         estimate D2E/DX2                !
 ! D42   D(2,5,7,21)          -179.7497         estimate D2E/DX2                !
 ! D43   D(19,5,7,3)           179.2527         estimate D2E/DX2                !
 ! D44   D(19,5,7,21)           -0.4943         estimate D2E/DX2                !
 ! D45   D(3,8,12,11)          179.0696         estimate D2E/DX2                !
 ! D46   D(3,8,12,29)           -2.1512         estimate D2E/DX2                !
 ! D47   D(22,8,12,11)          -2.0237         estimate D2E/DX2                !
 ! D48   D(22,8,12,29)         176.7555         estimate D2E/DX2                !
 ! D49   D(13,11,12,8)         -20.0034         estimate D2E/DX2                !
 ! D50   D(13,11,12,29)        161.1514         estimate D2E/DX2                !
 ! D51   D(14,11,12,8)         160.0011         estimate D2E/DX2                !
 ! D52   D(14,11,12,29)        -18.8442         estimate D2E/DX2                !
 ! D53   D(12,11,13,15)       -179.9839         estimate D2E/DX2                !
 ! D54   D(12,11,13,30)         -1.4155         estimate D2E/DX2                !
 ! D55   D(14,11,13,15)          0.0117         estimate D2E/DX2                !
 ! D56   D(14,11,13,30)        178.5801         estimate D2E/DX2                !
 ! D57   D(12,11,14,16)        179.9942         estimate D2E/DX2                !
 ! D58   D(12,11,14,31)         -0.1018         estimate D2E/DX2                !
 ! D59   D(13,11,14,16)         -0.0014         estimate D2E/DX2                !
 ! D60   D(13,11,14,31)        179.9026         estimate D2E/DX2                !
 ! D61   D(11,13,15,17)         -0.0146         estimate D2E/DX2                !
 ! D62   D(11,13,15,32)        179.6775         estimate D2E/DX2                !
 ! D63   D(30,13,15,17)       -178.659          estimate D2E/DX2                !
 ! D64   D(30,13,15,32)          1.0331         estimate D2E/DX2                !
 ! D65   D(11,14,16,17)         -0.006          estimate D2E/DX2                !
 ! D66   D(11,14,16,33)        179.9965         estimate D2E/DX2                !
 ! D67   D(31,14,16,17)       -179.9121         estimate D2E/DX2                !
 ! D68   D(31,14,16,33)          0.0904         estimate D2E/DX2                !
 ! D69   D(13,15,17,16)          0.0073         estimate D2E/DX2                !
 ! D70   D(13,15,17,34)        179.9266         estimate D2E/DX2                !
 ! D71   D(32,15,17,16)       -179.6851         estimate D2E/DX2                !
 ! D72   D(32,15,17,34)          0.2342         estimate D2E/DX2                !
 ! D73   D(14,16,17,15)          0.003          estimate D2E/DX2                !
 ! D74   D(14,16,17,34)       -179.9163         estimate D2E/DX2                !
 ! D75   D(33,16,17,15)       -179.9994         estimate D2E/DX2                !
 ! D76   D(33,16,17,34)          0.0813         estimate D2E/DX2                !
 --------------------------------------------------------------------------------
 Trust Radius=3.00D-01 FncErr=1.00D-07 GrdErr=1.00D-06 EigMax=2.50D+02 EigMin=1.00D-04
 Number of steps in this run=    178 maximum allowed number of steps=    204.
 GradGradGradGradGradGradGradGradGradGradGradGradGradGradGradGradGradGrad

 Leave Link  103 at Wed Dec  6 14:59:58 2023, MaxMem=  2147483648 cpu:               2.8 elap:               0.2
 (Enter /opt/gaussian/g16-c01/g16/l202.exe)
                          Input orientation:                          
 ---------------------------------------------------------------------
 Center     Atomic      Atomic             Coordinates (Angstroms)
 Number     Number       Type             X           Y           Z
 ---------------------------------------------------------------------
      1          7           0        4.907500    0.200900   -0.017700
      2          6           0        3.509900    0.012900   -0.003400
      3          6           0        0.764100   -0.356200    0.024700
      4          6           0        2.665100    1.025900   -0.457400
      5          6           0        2.972200   -1.186000    0.464800
      6          6           0        1.282700    0.840100   -0.443100
      7          6           0        1.589700   -1.371800    0.478900
      8          6           0       -0.696200   -0.552600    0.039700
      9          6           0        5.471400    1.527000    0.139100
     10          6           0        5.798800   -0.931200   -0.175700
     11          6           0       -3.058900    0.244900   -0.003900
     12          6           0       -1.617300    0.439000    0.000600
     13          6           0       -3.595700   -0.985900   -0.381400
     14          6           0       -3.904600    1.289600    0.369200
     15          6           0       -4.978000   -1.172100   -0.386100
     16          6           0       -5.287000    1.103300    0.364700
     17          6           0       -5.823700   -0.127600   -0.013000
     18          1           0        3.052600    1.964300   -0.844000
     19          1           0        3.600700   -1.990100    0.836800
     20          1           0        0.665300    1.644700   -0.829300
     21          1           0        1.185900   -2.309900    0.850500
     22          1           0       -1.003300   -1.593100    0.104200
     23          1           0        5.422700    2.083300   -0.802800
     24          1           0        6.524900    1.476000    0.436900
     25          1           0        4.951200    2.094500    0.919100
     26          1           0        6.794800   -0.607500   -0.498200
     27          1           0        5.432400   -1.627300   -0.938700
     28          1           0        5.917700   -1.466800    0.772000
     29          1           0       -1.305900    1.479900   -0.010900
     30          1           0       -2.979800   -1.821200   -0.701100
     31          1           0       -3.505200    2.255800    0.668100
     32          1           0       -5.396900   -2.128700   -0.685000
     33          1           0       -5.945700    1.916500    0.655200
     34          1           0       -6.900100   -0.272200   -0.017800
 ---------------------------------------------------------------------
                    Distance matrix (angstroms):
                    1          2          3          4          5
     1  N    0.000000
     2  C    1.410260   0.000000
     3  C    4.180900   2.770639   0.000000
     4  C    2.429469   1.394981   2.399254   0.000000
     5  C    2.429338   1.394881   2.399575   2.416043   0.000000
     6  C    3.705228   2.416199   1.385250   1.394904   2.789942
     7  C    3.705104   2.416025   1.385408   2.789643   1.395001
     8  C    5.654424   4.244164   1.473524   3.746613   3.746874
     9  C    1.449521   2.481993   5.071312   2.912427   3.703033
    10  C    1.449493   2.481950   5.071389   3.705357   2.909438
    11  C    7.966533   6.572896   3.870073   5.794808   6.216214
    12  C    6.529169   5.144877   2.510775   4.346627   4.890769
    13  C    8.593322   7.185404   4.423720   6.576529   6.625210
    14  C    8.887523   7.532835   4.962267   6.626746   7.309454
    15  C    9.987190   8.578760   5.814307   7.953192   7.995618
    16  C   10.241503   8.871861   6.233903   7.994857   8.571190
    17  C   10.736228   9.334662   6.591873   8.578332   8.872224
    18  H    2.689425   2.173406   3.372920   1.086375   3.412303
    19  H    2.690423   2.173980   3.372749   3.412705   1.086266
    20  H    4.554066   3.381809   2.177769   2.126129   3.874190
    21  H    4.572548   3.394926   2.162592   3.876364   2.145410
    22  H    6.178256   4.791637   2.158690   4.542215   4.012526
    23  H    2.103626   2.929915   5.323389   2.973509   4.277860
    24  H    2.109152   3.380052   6.059182   3.987533   4.439448
    25  H    2.113108   2.694700   4.933324   2.874528   3.858045
    26  H    2.108623   3.379392   6.058541   4.441180   3.984257
    27  H    2.113309   2.694633   4.933240   3.863815   2.866556
    28  H    2.103652   2.930573   5.324611   4.278362   2.974759
    29  H    6.343676   5.034290   2.767206   4.021731   5.063147
    30  H    8.171011   6.779890   4.085315   6.326947   6.098287
    31  H    8.687143   7.395481   5.046130   6.391557   7.337849
    32  H   10.585508   9.185974   6.450066   8.660205   8.500150
    33  H   11.008543   9.667772   7.112251   8.727939   9.444083
    34  H   11.817074  10.413913   7.664778   9.662886   9.926240
                    6          7          8          9         10
     6  C    0.000000
     7  C    2.415954   0.000000
     8  C    2.467540   2.467656   0.000000
     9  C    4.284390   4.856552   6.509524   0.000000
    10  C    4.858412   4.282424   6.509590   2.499807   0.000000
    11  C    4.404163   4.945331   2.494045   8.627297   8.937090
    12  C    2.961039   3.713841   1.353966   7.173046   7.543677
    13  C    5.209306   5.270428   2.961786   9.423263   9.396911
    14  C    5.269721   6.105933   3.714310   9.381827   9.969195
    15  C    6.576364   6.627427   4.347286  10.805135  10.781545
    16  C    6.624407   7.309457   4.891122  10.769103  11.283890
    17  C    7.184870   7.533160   5.145353  11.416660  11.651384
    18  H    2.134735   3.875526   4.601001   2.647321   4.046253
    19  H    3.875732   2.134129   4.600557   4.044292   2.641604
    20  H    1.085225   3.415432   2.727081   4.904105   5.780595
    21  H    3.406651   1.086818   2.699593   5.795982   4.922677
    22  H    3.383164   2.629263   1.086789   7.187349   6.839958
    23  H    4.337572   5.317176   6.715557   1.094996   3.101921
    24  H    5.353450   5.698064   7.511143   1.095969   2.587878
    25  H    4.109380   4.848576   6.298699   1.095931   3.327442
    26  H    5.699283   5.350883   7.510488   2.591067   1.095812
    27  H    4.853215   4.103805   6.298570   3.333584   1.095889
    28  H    5.318034   4.338953   6.716822   3.092343   1.095052
    29  H    2.701294   4.093482   2.122581   6.779123   7.504487
    30  H    5.031698   4.740748   2.715319   9.129028   8.839229
    31  H    5.114974   6.257259   4.021502   9.021659   9.870835
    32  H    7.313641   7.123211   5.010575  11.496227  11.271073
    33  H    7.390174   8.223518   5.833742  11.435394  12.113343
    34  H    8.268997   8.575111   6.210500  12.502630  12.716968
                   11         12         13         14         15
    11  C    0.000000
    12  C    1.454615   0.000000
    13  C    1.394822   2.467860   0.000000
    14  C    1.394923   2.468021   2.415930   0.000000
    15  C    2.415970   3.746930   1.394792   2.789737   0.000000
    16  C    2.416019   3.747074   2.789609   1.394904   2.415911
    17  C    2.789795   4.244411   2.415860   2.416087   1.394773
    18  H    6.404103   4.984762   7.288180   7.094343   8.633494
    19  H    7.074763   5.816123   7.367537   8.203939   8.703948
    20  H    4.063298   2.711588   5.027603   4.737772   6.322786
    21  H    5.027458   4.017053   5.112167   6.253098   6.388852
    22  H    2.759605   2.125361   2.706481   4.098503   4.026894
    23  H    8.715245   7.273979   9.535675   9.434091  10.906229
    24  H    9.672597   8.219559  10.447828  10.431385  11.832433
    25  H    8.272524   6.835899   9.177672   8.909290  10.533909
    26  H    9.902844   8.491607  10.398044  10.900850  11.786864
    27  H    8.745351   7.406089   9.067997   9.869067  10.434989
    28  H    9.171220   7.810465   9.595123  10.209680  10.961037
    29  H    2.144361   1.086543   3.385354   2.633236   4.545129
    30  H    2.181998   2.730804   1.085941   3.417290   2.124467
    31  H    2.166676   2.703791   3.408557   1.087384   3.876980
    32  H    3.400606   4.620444   2.154643   3.875961   1.086233
    33  H    3.400334   4.620233   3.875689   2.154272   3.400029
    34  H    3.875874   5.330490   3.400093   3.400295   2.154050
                   16         17         18         19         20
    16  C    0.000000
    17  C    1.394926   0.000000
    18  H    8.470608   9.157254   0.000000
    19  H    9.422484   9.644189   4.331603   0.000000
    20  H    6.094967   6.776025   2.408643   4.960265   0.000000
    21  H    7.333783   7.392060   4.962327   2.435923   4.328003
    22  H    5.068384   5.039611   5.477637   4.678796   3.760186
    23  H   10.817631  11.488837   2.373443   4.754005   4.777649
    24  H   11.817999  12.460412   3.733096   4.552441   5.997219
    25  H   10.300999  11.041060   2.594254   4.302857   4.650609
    26  H   12.232797  12.636941   4.553877   3.727745   6.538563
    27  H   11.138248  11.393235   4.309525   2.576655   5.783009
    28  H   11.502896  11.843570   4.753178   2.376243   6.311363
    29  H    4.016474   4.795266   4.463768   6.069120   2.140693
    30  H    3.874507   3.380759   7.123221   6.759929   5.031466
    31  H    2.143623   3.394103   6.736183   8.279489   4.473111
    32  H    3.399966   2.153635   9.389994   9.126439   7.142103
    33  H    1.086080   2.154001   9.122461  10.316407   6.781072
    34  H    2.154158   1.086080  10.234294  10.674658   7.846548
                   21         22         23         24         25
    21  H    0.000000
    22  H    2.421438   0.000000
    23  H    6.323297   7.458689   0.000000
    24  H    6.558127   8.136575   1.766498   0.000000
    25  H    5.794905   7.051137   1.785323   1.758292   0.000000
    26  H    6.014725   7.883188   3.035761   2.299615   3.564885
    27  H    4.658320   6.519743   3.713100   3.565992   4.187454
    28  H    4.806965   6.954290   3.915128   3.023418   3.693050
    29  H    4.616672   3.090007   6.801857   7.843594   6.355622
    30  H    4.472063   2.146413   9.265931  10.124519   8.992136
    31  H    6.548687   4.625097   9.049901  10.063024   8.461662
    32  H    6.761941   4.495934  11.611140  12.505272  11.291224
    33  H    8.292184   6.086724  11.462727  12.480287  10.901548
    34  H    8.383887   6.044163  12.570442  13.545980  12.121566
                   26         27         28         29         30
    26  H    0.000000
    27  H    1.757887   0.000000
    28  H    1.766666   1.785433   0.000000
    29  H    8.379501   7.477980   7.840687   0.000000
    30  H    9.851753   8.417788   9.025582   3.765047   0.000000
    31  H   10.754011   9.876283  10.132107   2.428988   4.332745
    32  H   12.287656  10.843869  11.427210   5.496607   2.436635
    33  H   13.039220  12.023319  12.336962   4.707659   4.960495
    34  H   13.707425  12.440856  12.897552   5.862165   4.270252
                   31         32         33         34
    31  H    0.000000
    32  H    4.963189   0.000000
    33  H    2.464007   4.296622   0.000000
    34  H    4.287959   2.480193   2.480769   0.000000
 Stoichiometry    C16H17N
 Framework group  C1[X(C16H17N)]
 Deg. of freedom    96
 Full point group                 C1      NOp   1
 Largest Abelian subgroup         C1      NOp   1
 Largest concise Abelian subgroup C1      NOp   1
                         Standard orientation:                         
 ---------------------------------------------------------------------
 Center     Atomic      Atomic             Coordinates (Angstroms)
 Number     Number       Type             X           Y           Z
 ---------------------------------------------------------------------
      1          7           0       -4.729717    0.171659    0.016048
      2          6           0       -3.331393   -0.010880    0.001698
      3          6           0       -0.584174   -0.369251   -0.026499
      4          6           0       -2.490647    1.004408    0.458104
      5          6           0       -2.788925   -1.206667   -0.468957
      6          6           0       -1.107532    0.824010    0.443755
      7          6           0       -1.405710   -1.387065   -0.483106
      8          6           0        0.876882   -0.559945   -0.041551
      9          6           0       -5.298725    1.495895   -0.138026
     10          6           0       -5.616651   -0.964233    0.171372
     11          6           0        3.236456    0.246629    0.004377
     12          6           0        1.794114    0.435138   -0.000071
     13          6           0        3.777939   -0.982891    0.379350
     14          6           0        4.078183    1.295410   -0.366247
     15          6           0        5.160951   -1.163731    0.384000
     16          6           0        5.461295    1.114472   -0.361797
     17          6           0        6.002679   -0.115149    0.013376
     18          1           0       -2.881884    1.940458    0.846635
     19          1           0       -3.414205   -2.012395   -0.842856
     20          1           0       -0.493357    1.630164    0.831852
     21          1           0       -0.998178   -2.322783   -0.856631
     22          1           0        1.188037   -1.599103   -0.108224
     23          1           0       -5.252418    2.050340    0.805087
     24          1           0       -6.351945    1.441449   -0.436205
     25          1           0       -4.780541    2.067098   -0.916664
     26          1           0       -6.613981   -0.645103    0.494317
     27          1           0       -5.247739   -1.660555    0.932958
     28          1           0       -5.733236   -1.498239   -0.777515
     29          1           0        1.478670    1.474793    0.013601
     30          1           0        3.165210   -1.821267    0.697085
     31          1           0        3.675107    2.260697   -0.663158
     32          1           0        5.583490   -2.119341    0.680937
     33          1           0        6.116903    1.930851   -0.650369
     34          1           0        7.079632   -0.255578    0.018138
 ---------------------------------------------------------------------
 Rotational constants (GHZ):           2.0204754           0.1479314           0.1398033
 Leave Link  202 at Wed Dec  6 14:59:59 2023, MaxMem=  2147483648 cpu:               2.0 elap:               0.1
 (Enter /opt/gaussian/g16-c01/g16/l301.exe)
 Standard basis: 6-311++G(d,p) (5D, 7F)
 Ernie: Thresh=  0.10000D-02 Tol=  0.10000D-05 Strict=F.
 There are   510 symmetry adapted cartesian basis functions of A   symmetry.
 There are   493 symmetry adapted basis functions of A   symmetry.
   493 basis functions,   765 primitive gaussians,   510 cartesian basis functions
    60 alpha electrons       60 beta electrons
       nuclear repulsion energy      1037.2250491025 Hartrees.
 IExCor= 7252 DFT=T Ex+Corr=MN15 ExCW=0 ScaHFX=  0.440000
 ScaDFX=  1.000000  1.000000  1.000000  1.000000 ScalE2=  1.000000  1.000000
 IRadAn=      5 IRanWt=     -1 IRanGd=            0 ICorTp=0 IEmpDi=  4
 NAtoms=   34 NActive=   34 NUniq=   34 SFac= 1.00D+00 NAtFMM=   60 NAOKFM=F Big=F
 Integral buffers will be    131072 words long.
 Raffenetti 2 integral format.
 Two-electron integral symmetry is turned on.
 Leave Link  301 at Wed Dec  6 14:59:59 2023, MaxMem=  2147483648 cpu:               3.2 elap:               0.2
 (Enter /opt/gaussian/g16-c01/g16/l302.exe)
 NPDir=0 NMtPBC=     1 NCelOv=     1 NCel=       1 NClECP=     1 NCelD=      1
         NCelK=      1 NCelE2=     1 NClLst=     1 CellRange=     0.0.
 One-electron integrals computed using PRISM.
 One-electron integral symmetry used in STVInt
 NBasis=   493 RedAO= T EigKep=  1.02D-06  NBF=   493
 NBsUse=   489 1.00D-06 EigRej=  6.81D-07 NBFU=   489
 Precomputing XC quadrature grid using
 IXCGrd= 4 IRadAn=           5 IRanWt=          -1 IRanGd=           0 AccXCQ= 0.00D+00.
 Generated NRdTot=       0 NPtTot=           0 NUsed=           0 NTot=          32
 NSgBfM=   505   505   505   505   505 MxSgAt=    34 MxSgA2=    34.
 Leave Link  302 at Wed Dec  6 14:59:59 2023, MaxMem=  2147483648 cpu:              15.1 elap:               0.6
 (Enter /opt/gaussian/g16-c01/g16/l303.exe)
 DipDrv:  MaxL=1.
 Leave Link  303 at Wed Dec  6 15:00:00 2023, MaxMem=  2147483648 cpu:               5.5 elap:               0.3
 (Enter /opt/gaussian/g16-c01/g16/l401.exe)
 ExpMin= 3.60D-02 ExpMax= 6.29D+03 ExpMxC= 9.49D+02 IAcc=3 IRadAn=         5 AccDes= 0.00D+00
 Harris functional with IExCor= 1009 and IRadAn=       5 diagonalized for initial guess.
 HarFok:  IExCor= 1009 AccDes= 0.00D+00 IRadAn=         5 IDoV= 1 UseB2=F ITyADJ=14
 ICtDFT=  3500011 ScaDFX=  1.000000  1.000000  1.000000  1.000000
 FoFCou: FMM=F IPFlag=           0 FMFlag=      100000 FMFlg1=           0
         NFxFlg=           0 DoJE=T BraDBF=F KetDBF=T FulRan=T
         wScrn=  0.000000 ICntrl=       500 IOpCl=  0 I1Cent=   200000004 NGrid=           0
         NMat0=    1 NMatS0=      1 NMatT0=    0 NMatD0=    1 NMtDS0=    0 NMtDT0=    0
 Petite list used in FoFCou.
 Harris En= -674.264714251722    
 JPrj=0 DoOrth=F DoCkMO=F.
 Leave Link  401 at Wed Dec  6 15:00:10 2023, MaxMem=  2147483648 cpu:             257.8 elap:              10.4
 (Enter /opt/gaussian/g16-c01/g16/l502.exe)
 Integral symmetry usage will be decided dynamically.
 Closed shell SCF:
 Using DIIS extrapolation, IDIIS=  1040.
 NGot=  2147483648 LenX=  2146944446 LenY=  2146683836
 Requested convergence on RMS density matrix=1.00D-08 within 128 cycles.
 Requested convergence on MAX density matrix=1.00D-06.
 Requested convergence on             energy=1.00D-06.
 No special actions if energy rises.
 Fock matrices will be formed incrementally for  20 cycles.

 Cycle   1  Pass 1  IDiag  1:
 FoFJK:  IHMeth= 1 ICntrl=       0 DoSepK=F KAlg= 0 I1Cent=           0 FoldK=F
 IRaf= 800000000 NMat=       1 IRICut=       1 DoRegI=T DoRafI=F ISym2E= 0 IDoP0=0 IntGTp=1.
 FoFCou: FMM=F IPFlag=           0 FMFlag=      100000 FMFlg1=           0
         NFxFlg=           0 DoJE=F BraDBF=F KetDBF=F FulRan=T
         wScrn=  0.000000 ICntrl=         0 IOpCl=  0 I1Cent=           0 NGrid=           0
         NMat0=    1 NMatS0=      1 NMatT0=    0 NMatD0=    1 NMtDS0=    0 NMtDT0=    0
 Symmetry not used in FoFCou.
 E= -673.566884729007    
 DIIS: error= 2.33D-02 at cycle   1 NSaved=   1.
 NSaved= 1 IEnMin= 1 EnMin= -673.566884729007     IErMin= 1 ErrMin= 2.33D-02
 ErrMax= 2.33D-02  0.00D+00 EMaxC= 1.00D-01 BMatC= 4.20D-01 BMatP= 4.20D-01
 IDIUse=3 WtCom= 7.67D-01 WtEn= 2.33D-01
 Coeff-Com:  0.100D+01
 Coeff-En:   0.100D+01
 Coeff:      0.100D+01
 Gap=     0.242 Goal=   None    Shift=    0.000
 GapD=    0.242 DampG=1.000 DampE=0.500 DampFc=0.5000 IDamp=-1.
 Damping current iteration by 5.00D-01
 RMSDP=4.62D-02 MaxDP=4.37D+00              OVMax= 1.61D-01

 Cycle   2  Pass 1  IDiag  1:
 RMSU=  9.83D-03    CP:  8.05D-01
 E= -673.773632726244     Delta-E=       -0.206747997237 Rises=F Damp=T
 DIIS: error= 8.98D-03 at cycle   2 NSaved=   2.
 NSaved= 2 IEnMin= 2 EnMin= -673.773632726244     IErMin= 2 ErrMin= 8.98D-03
 ErrMax= 8.98D-03  0.00D+00 EMaxC= 1.00D-01 BMatC= 3.32D-02 BMatP= 4.20D-01
 IDIUse=3 WtCom= 9.10D-01 WtEn= 8.98D-02
 Coeff-Com: -0.129D+00 0.113D+01
 Coeff-En:   0.000D+00 0.100D+01
 Coeff:     -0.117D+00 0.112D+01
 Gap=     0.257 Goal=   None    Shift=    0.000
 RMSDP=2.74D-02 MaxDP=3.18D+00 DE=-2.07D-01 OVMax= 1.00D-01

 Cycle   3  Pass 1  IDiag  1:
 RMSU=  1.02D-02    CP:  5.70D-01  7.42D-01
 E= -673.962308173713     Delta-E=       -0.188675447469 Rises=F Damp=F
 DIIS: error= 3.47D-03 at cycle   3 NSaved=   3.
 NSaved= 3 IEnMin= 3 EnMin= -673.962308173713     IErMin= 3 ErrMin= 3.47D-03
 ErrMax= 3.47D-03  0.00D+00 EMaxC= 1.00D-01 BMatC= 7.03D-03 BMatP= 3.32D-02
 IDIUse=3 WtCom= 9.65D-01 WtEn= 3.47D-02
 Coeff-Com: -0.831D-01 0.348D+00 0.735D+00
 Coeff-En:   0.000D+00 0.000D+00 0.100D+01
 Coeff:     -0.802D-01 0.336D+00 0.744D+00
 Gap=     0.197 Goal=   None    Shift=    0.000
 RMSDP=5.99D-03 MaxDP=4.77D-01 DE=-1.89D-01 OVMax= 4.39D-02

 Cycle   4  Pass 1  IDiag  1:
 RMSU=  2.14D-03    CP:  5.22D-01  9.23D-01  8.73D-01
 E= -673.965564893764     Delta-E=       -0.003256720051 Rises=F Damp=F
 DIIS: error= 3.03D-03 at cycle   4 NSaved=   4.
 NSaved= 4 IEnMin= 4 EnMin= -673.965564893764     IErMin= 4 ErrMin= 3.03D-03
 ErrMax= 3.03D-03  0.00D+00 EMaxC= 1.00D-01 BMatC= 3.51D-03 BMatP= 7.03D-03
 IDIUse=3 WtCom= 9.70D-01 WtEn= 3.03D-02
 Coeff-Com: -0.372D-01 0.114D+00 0.445D+00 0.478D+00
 Coeff-En:   0.000D+00 0.000D+00 0.345D+00 0.655D+00
 Coeff:     -0.360D-01 0.110D+00 0.442D+00 0.483D+00
 Gap=     0.189 Goal=   None    Shift=    0.000
 RMSDP=9.76D-04 MaxDP=9.12D-02 DE=-3.26D-03 OVMax= 2.13D-02

 Cycle   5  Pass 1  IDiag  1:
 RMSU=  8.11D-04    CP:  5.19D-01  9.18D-01  8.77D-01  7.86D-01
 E= -673.968909616075     Delta-E=       -0.003344722312 Rises=F Damp=F
 DIIS: error= 5.56D-04 at cycle   5 NSaved=   5.
 NSaved= 5 IEnMin= 5 EnMin= -673.968909616075     IErMin= 5 ErrMin= 5.56D-04
 ErrMax= 5.56D-04  0.00D+00 EMaxC= 1.00D-01 BMatC= 1.06D-04 BMatP= 3.51D-03
 IDIUse=3 WtCom= 9.94D-01 WtEn= 5.56D-03
 Coeff-Com: -0.911D-02 0.229D-01 0.132D+00 0.207D+00 0.647D+00
 Coeff-En:   0.000D+00 0.000D+00 0.000D+00 0.000D+00 0.100D+01
 Coeff:     -0.906D-02 0.227D-01 0.132D+00 0.206D+00 0.649D+00
 Gap=     0.190 Goal=   None    Shift=    0.000
 RMSDP=5.45D-04 MaxDP=3.41D-02 DE=-3.34D-03 OVMax= 4.63D-03

 Cycle   6  Pass 1  IDiag  1:
 RMSU=  2.18D-04    CP:  5.23D-01  8.99D-01  8.96D-01  7.10D-01  7.85D-01
 E= -673.969012010257     Delta-E=       -0.000102394182 Rises=F Damp=F
 DIIS: error= 1.97D-04 at cycle   6 NSaved=   6.
 NSaved= 6 IEnMin= 6 EnMin= -673.969012010257     IErMin= 6 ErrMin= 1.97D-04
 ErrMax= 1.97D-04  0.00D+00 EMaxC= 1.00D-01 BMatC= 1.52D-05 BMatP= 1.06D-04
 IDIUse=3 WtCom= 9.98D-01 WtEn= 1.97D-03
 Coeff-Com: -0.110D-02 0.107D-02 0.259D-01 0.544D-01 0.330D+00 0.590D+00
 Coeff-En:   0.000D+00 0.000D+00 0.000D+00 0.000D+00 0.456D-01 0.954D+00
 Coeff:     -0.110D-02 0.106D-02 0.258D-01 0.543D-01 0.329D+00 0.591D+00
 Gap=     0.190 Goal=   None    Shift=    0.000
 RMSDP=1.16D-04 MaxDP=8.54D-03 DE=-1.02D-04 OVMax= 1.50D-03

 Cycle   7  Pass 1  IDiag  1:
 RMSU=  8.60D-05    CP:  5.23D-01  8.99D-01  8.94D-01  7.19D-01  8.75D-01
                    CP:  9.66D-01
 E= -673.969028545726     Delta-E=       -0.000016535469 Rises=F Damp=F
 DIIS: error= 3.86D-05 at cycle   7 NSaved=   7.
 NSaved= 7 IEnMin= 7 EnMin= -673.969028545726     IErMin= 7 ErrMin= 3.86D-05
 ErrMax= 3.86D-05  0.00D+00 EMaxC= 1.00D-01 BMatC= 1.33D-06 BMatP= 1.52D-05
 IDIUse=1 WtCom= 1.00D+00 WtEn= 0.00D+00
 Coeff-Com:  0.108D-02-0.362D-02-0.915D-02-0.107D-01 0.528D-01 0.251D+00
 Coeff-Com:  0.718D+00
 Coeff:      0.108D-02-0.362D-02-0.915D-02-0.107D-01 0.528D-01 0.251D+00
 Coeff:      0.718D+00
 Gap=     0.190 Goal=   None    Shift=    0.000
 RMSDP=4.50D-05 MaxDP=4.50D-03 DE=-1.65D-05 OVMax= 5.77D-04

 Cycle   8  Pass 1  IDiag  1:
 RMSU=  1.68D-05    CP:  5.22D-01  8.98D-01  8.94D-01  7.18D-01  9.00D-01
                    CP:  1.07D+00  1.05D+00
 E= -673.969029929644     Delta-E=       -0.000001383918 Rises=F Damp=F
 DIIS: error= 2.27D-05 at cycle   8 NSaved=   8.
 NSaved= 8 IEnMin= 8 EnMin= -673.969029929644     IErMin= 8 ErrMin= 2.27D-05
 ErrMax= 2.27D-05  0.00D+00 EMaxC= 1.00D-01 BMatC= 2.41D-07 BMatP= 1.33D-06
 IDIUse=1 WtCom= 1.00D+00 WtEn= 0.00D+00
 Coeff-Com:  0.711D-03-0.200D-02-0.760D-02-0.128D-01-0.968D-02 0.649D-01
 Coeff-Com:  0.366D+00 0.601D+00
 Coeff:      0.711D-03-0.200D-02-0.760D-02-0.128D-01-0.968D-02 0.649D-01
 Coeff:      0.366D+00 0.601D+00
 Gap=     0.190 Goal=   None    Shift=    0.000
 RMSDP=1.59D-05 MaxDP=1.21D-03 DE=-1.38D-06 OVMax= 2.75D-04

 Cycle   9  Pass 1  IDiag  1:
 RMSU=  8.15D-06    CP:  5.22D-01  8.98D-01  8.94D-01  7.15D-01  9.00D-01
                    CP:  1.09D+00  1.09D+00  9.51D-01
 E= -673.969030213914     Delta-E=       -0.000000284271 Rises=F Damp=F
 DIIS: error= 8.80D-06 at cycle   9 NSaved=   9.
 NSaved= 9 IEnMin= 9 EnMin= -673.969030213914     IErMin= 9 ErrMin= 8.80D-06
 ErrMax= 8.80D-06  0.00D+00 EMaxC= 1.00D-01 BMatC= 1.91D-08 BMatP= 2.41D-07
 IDIUse=1 WtCom= 1.00D+00 WtEn= 0.00D+00
 Coeff-Com:  0.765D-04-0.118D-03-0.869D-03-0.266D-02-0.860D-02-0.126D-01
 Coeff-Com: -0.469D-02 0.188D+00 0.841D+00
 Coeff:      0.765D-04-0.118D-03-0.869D-03-0.266D-02-0.860D-02-0.126D-01
 Coeff:     -0.469D-02 0.188D+00 0.841D+00
 Gap=     0.190 Goal=   None    Shift=    0.000
 RMSDP=7.86D-06 MaxDP=6.55D-04 DE=-2.84D-07 OVMax= 1.07D-04

 Cycle  10  Pass 1  IDiag  1:
 RMSU=  2.43D-06    CP:  5.23D-01  8.98D-01  8.94D-01  7.14D-01  9.04D-01
                    CP:  1.10D+00  1.11D+00  1.12D+00  1.01D+00
 E= -673.969030239599     Delta-E=       -0.000000025685 Rises=F Damp=F
 DIIS: error= 4.38D-06 at cycle  10 NSaved=  10.
 NSaved=10 IEnMin=10 EnMin= -673.969030239599     IErMin=10 ErrMin= 4.38D-06
 ErrMax= 4.38D-06  0.00D+00 EMaxC= 1.00D-01 BMatC= 6.60D-09 BMatP= 1.91D-08
 IDIUse=1 WtCom= 1.00D+00 WtEn= 0.00D+00
 Coeff-Com: -0.455D-04 0.189D-03 0.499D-03 0.214D-04-0.400D-02-0.163D-01
 Coeff-Com: -0.534D-01 0.341D-01 0.497D+00 0.542D+00
 Coeff:     -0.455D-04 0.189D-03 0.499D-03 0.214D-04-0.400D-02-0.163D-01
 Coeff:     -0.534D-01 0.341D-01 0.497D+00 0.542D+00
 Gap=     0.190 Goal=   None    Shift=    0.000
 RMSDP=2.40D-06 MaxDP=1.57D-04 DE=-2.57D-08 OVMax= 4.16D-05

 Cycle  11  Pass 1  IDiag  1:
 RMSU=  1.04D-06    CP:  5.23D-01  8.98D-01  8.94D-01  7.14D-01  9.04D-01
                    CP:  1.10D+00  1.12D+00  1.15D+00  1.12D+00  8.90D-01
 E= -673.969030247348     Delta-E=       -0.000000007749 Rises=F Damp=F
 DIIS: error= 9.61D-07 at cycle  11 NSaved=  11.
 NSaved=11 IEnMin=11 EnMin= -673.969030247348     IErMin=11 ErrMin= 9.61D-07
 ErrMax= 9.61D-07  0.00D+00 EMaxC= 1.00D-01 BMatC= 3.13D-10 BMatP= 6.60D-09
 IDIUse=1 WtCom= 1.00D+00 WtEn= 0.00D+00
 Coeff-Com: -0.272D-04 0.850D-04 0.318D-03 0.345D-03-0.106D-03-0.335D-02
 Coeff-Com: -0.183D-01-0.128D-01 0.555D-01 0.196D+00 0.782D+00
 Coeff:     -0.272D-04 0.850D-04 0.318D-03 0.345D-03-0.106D-03-0.335D-02
 Coeff:     -0.183D-01-0.128D-01 0.555D-01 0.196D+00 0.782D+00
 Gap=     0.190 Goal=   None    Shift=    0.000
 RMSDP=5.88D-07 MaxDP=4.71D-05 DE=-7.75D-09 OVMax= 1.13D-05

 Cycle  12  Pass 1  IDiag  1:
 RMSU=  3.46D-07    CP:  5.23D-01  8.98D-01  8.94D-01  7.14D-01  9.04D-01
                    CP:  1.10D+00  1.11D+00  1.16D+00  1.13D+00  9.68D-01
                    CP:  9.65D-01
 E= -673.969030247790     Delta-E=       -0.000000000441 Rises=F Damp=F
 DIIS: error= 3.19D-07 at cycle  12 NSaved=  12.
 NSaved=12 IEnMin=12 EnMin= -673.969030247790     IErMin=12 ErrMin= 3.19D-07
 ErrMax= 3.19D-07  0.00D+00 EMaxC= 1.00D-01 BMatC= 4.42D-11 BMatP= 3.13D-10
 IDIUse=1 WtCom= 1.00D+00 WtEn= 0.00D+00
 Coeff-Com: -0.784D-05 0.193D-04 0.966D-04 0.148D-03 0.331D-03 0.157D-03
 Coeff-Com: -0.324D-02-0.944D-02-0.285D-01 0.331D-01 0.344D+00 0.664D+00
 Coeff:     -0.784D-05 0.193D-04 0.966D-04 0.148D-03 0.331D-03 0.157D-03
 Coeff:     -0.324D-02-0.944D-02-0.285D-01 0.331D-01 0.344D+00 0.664D+00
 Gap=     0.190 Goal=   None    Shift=    0.000
 RMSDP=2.22D-07 MaxDP=1.60D-05 DE=-4.41D-10 OVMax= 2.91D-06

 Cycle  13  Pass 1  IDiag  1:
 RMSU=  1.12D-07    CP:  5.23D-01  8.98D-01  8.94D-01  7.14D-01  9.04D-01
                    CP:  1.10D+00  1.11D+00  1.16D+00  1.14D+00  1.00D+00
                    CP:  1.01D+00  1.11D+00
 E= -673.969030247891     Delta-E=       -0.000000000101 Rises=F Damp=F
 DIIS: error= 8.91D-08 at cycle  13 NSaved=  13.
 NSaved=13 IEnMin=13 EnMin= -673.969030247891     IErMin=13 ErrMin= 8.91D-08
 ErrMax= 8.91D-08  0.00D+00 EMaxC= 1.00D-01 BMatC= 4.48D-12 BMatP= 4.42D-11
 IDIUse=1 WtCom= 1.00D+00 WtEn= 0.00D+00
 Coeff-Com:  0.117D-05-0.565D-05-0.871D-05 0.263D-05 0.150D-03 0.636D-03
 Coeff-Com:  0.146D-02-0.129D-02-0.186D-01-0.139D-01 0.237D-01 0.260D+00
 Coeff-Com:  0.748D+00
 Coeff:      0.117D-05-0.565D-05-0.871D-05 0.263D-05 0.150D-03 0.636D-03
 Coeff:      0.146D-02-0.129D-02-0.186D-01-0.139D-01 0.237D-01 0.260D+00
 Coeff:      0.748D+00
 Gap=     0.190 Goal=   None    Shift=    0.000
 RMSDP=1.00D-07 MaxDP=6.86D-06 DE=-1.01D-10 OVMax= 1.09D-06

 Cycle  14  Pass 1  IDiag  1:
 RMSU=  4.61D-08    CP:  5.23D-01  8.98D-01  8.94D-01  7.13D-01  9.04D-01
                    CP:  1.10D+00  1.11D+00  1.16D+00  1.14D+00  1.01D+00
                    CP:  1.02D+00  1.19D+00  1.37D+00
 E= -673.969030247798     Delta-E=        0.000000000093 Rises=F Damp=F
 DIIS: error= 3.62D-08 at cycle  14 NSaved=  14.
 NSaved=14 IEnMin=13 EnMin= -673.969030247891     IErMin=14 ErrMin= 3.62D-08
 ErrMax= 3.62D-08  0.00D+00 EMaxC= 1.00D-01 BMatC= 5.46D-13 BMatP= 4.48D-12
 IDIUse=1 WtCom= 1.00D+00 WtEn= 0.00D+00
 Coeff-Com:  0.124D-05-0.408D-05-0.121D-04-0.120D-04 0.280D-04 0.246D-03
 Coeff-Com:  0.845D-03 0.350D-03-0.464D-02-0.793D-02-0.219D-01 0.365D-01
 Coeff-Com:  0.295D+00 0.702D+00
 Coeff:      0.124D-05-0.408D-05-0.121D-04-0.120D-04 0.280D-04 0.246D-03
 Coeff:      0.845D-03 0.350D-03-0.464D-02-0.793D-02-0.219D-01 0.365D-01
 Coeff:      0.295D+00 0.702D+00
 Gap=     0.190 Goal=   None    Shift=    0.000
 RMSDP=3.57D-08 MaxDP=2.13D-06 DE= 9.30D-11 OVMax= 4.24D-07

 Cycle  15  Pass 1  IDiag  1:
 RMSU=  1.53D-08    CP:  5.23D-01  8.98D-01  8.94D-01  7.13D-01  9.04D-01
                    CP:  1.10D+00  1.11D+00  1.16D+00  1.14D+00  1.01D+00
                    CP:  1.02D+00  1.24D+00  1.40D+00  8.87D-01
 E= -673.969030247873     Delta-E=       -0.000000000075 Rises=F Damp=F
 DIIS: error= 2.14D-08 at cycle  15 NSaved=  15.
 NSaved=15 IEnMin=13 EnMin= -673.969030247891     IErMin=15 ErrMin= 2.14D-08
 ErrMax= 2.14D-08  0.00D+00 EMaxC= 1.00D-01 BMatC= 1.48D-13 BMatP= 5.46D-13
 IDIUse=1 WtCom= 1.00D+00 WtEn= 0.00D+00
 Coeff-Com:  0.513D-06-0.133D-05-0.547D-05-0.712D-05-0.130D-04 0.238D-04
 Coeff-Com:  0.204D-03 0.389D-03 0.681D-03-0.194D-02-0.173D-01-0.302D-01
 Coeff-Com:  0.222D-01 0.380D+00 0.646D+00
 Coeff:      0.513D-06-0.133D-05-0.547D-05-0.712D-05-0.130D-04 0.238D-04
 Coeff:      0.204D-03 0.389D-03 0.681D-03-0.194D-02-0.173D-01-0.302D-01
 Coeff:      0.222D-01 0.380D+00 0.646D+00
 Gap=     0.190 Goal=   None    Shift=    0.000
 RMSDP=2.00D-08 MaxDP=1.35D-06 DE=-7.53D-11 OVMax= 1.48D-07

 Cycle  16  Pass 1  IDiag  1:
 RMSU=  6.51D-09    CP:  5.23D-01  8.98D-01  8.94D-01  7.13D-01  9.04D-01
                    CP:  1.10D+00  1.11D+00  1.16D+00  1.14D+00  1.01D+00
                    CP:  1.02D+00  1.26D+00  1.46D+00  9.91D-01  7.08D-01
 E= -673.969030247846     Delta-E=        0.000000000028 Rises=F Damp=F
 DIIS: error= 3.92D-09 at cycle  16 NSaved=  16.
 NSaved=16 IEnMin=13 EnMin= -673.969030247891     IErMin=16 ErrMin= 3.92D-09
 ErrMax= 3.92D-09  0.00D+00 EMaxC= 1.00D-01 BMatC= 7.81D-15 BMatP= 1.48D-13
 IDIUse=1 WtCom= 1.00D+00 WtEn= 0.00D+00
 Coeff-Com:  0.714D-07-0.913D-07-0.813D-06-0.140D-05-0.772D-05-0.134D-04
 Coeff-Com: -0.925D-05 0.106D-03 0.744D-03 0.192D-03-0.384D-02-0.145D-01
 Coeff-Com: -0.204D-01 0.738D-01 0.250D+00 0.714D+00
 Coeff:      0.714D-07-0.913D-07-0.813D-06-0.140D-05-0.772D-05-0.134D-04
 Coeff:     -0.925D-05 0.106D-03 0.744D-03 0.192D-03-0.384D-02-0.145D-01
 Coeff:     -0.204D-01 0.738D-01 0.250D+00 0.714D+00
 Gap=     0.190 Goal=   None    Shift=    0.000
 RMSDP=4.01D-09 MaxDP=2.51D-07 DE= 2.75D-11 OVMax= 4.41D-08

 SCF Done:  E(RMN15) =  -673.969030248     A.U. after   16 cycles
            NFock= 16  Conv=0.40D-08     -V/T= 2.0041
 KE= 6.711953698655D+02 PE=-3.638924695365D+03 EE= 1.256535246149D+03
 Leave Link  502 at Wed Dec  6 15:04:33 2023, MaxMem=  2147483648 cpu:            6627.8 elap:             262.7
 (Enter /opt/gaussian/g16-c01/g16/l601.exe)
 Copying SCF densities to generalized density rwf, IOpCl= 0 IROHF=0.

 **********************************************************************

            Population analysis using the SCF Density.

 **********************************************************************

 Orbital symmetries:
       Occupied  (A) (A) (A) (A) (A) (A) (A) (A) (A) (A) (A) (A)
                 (A) (A) (A) (A) (A) (A) (A) (A) (A) (A) (A) (A)
                 (A) (A) (A) (A) (A) (A) (A) (A) (A) (A) (A) (A)
                 (A) (A) (A) (A) (A) (A) (A) (A) (A) (A) (A) (A)
                 (A) (A) (A) (A) (A) (A) (A) (A) (A) (A) (A) (A)
       Virtual   (A) (A) (A) (A) (A) (A) (A) (A) (A) (A) (A) (A)
                 (A) (A) (A) (A) (A) (A) (A) (A) (A) (A) (A) (A)
                 (A) (A) (A) (A) (A) (A) (A) (A) (A) (A) (A) (A)
                 (A) (A) (A) (A) (A) (A) (A) (A) (A) (A) (A) (A)
                 (A) (A) (A) (A) (A) (A) (A) (A) (A) (A) (A) (A)
                 (A) (A) (A) (A) (A) (A) (A) (A) (A) (A) (A) (A)
                 (A) (A) (A) (A) (A) (A) (A) (A) (A) (A) (A) (A)
                 (A) (A) (A) (A) (A) (A) (A) (A) (A) (A) (A) (A)
                 (A) (A) (A) (A) (A) (A) (A) (A) (A) (A) (A) (A)
                 (A) (A) (A) (A) (A) (A) (A) (A) (A) (A) (A) (A)
                 (A) (A) (A) (A) (A) (A) (A) (A) (A) (A) (A) (A)
                 (A) (A) (A) (A) (A) (A) (A) (A) (A) (A) (A) (A)
                 (A) (A) (A) (A) (A) (A) (A) (A) (A) (A) (A) (A)
                 (A) (A) (A) (A) (A) (A) (A) (A) (A) (A) (A) (A)
                 (A) (A) (A) (A) (A) (A) (A) (A) (A) (A) (A) (A)
                 (A) (A) (A) (A) (A) (A) (A) (A) (A) (A) (A) (A)
                 (A) (A) (A) (A) (A) (A) (A) (A) (A) (A) (A) (A)
                 (A) (A) (A) (A) (A) (A) (A) (A) (A) (A) (A) (A)
                 (A) (A) (A) (A) (A) (A) (A) (A) (A) (A) (A) (A)
                 (A) (A) (A) (A) (A) (A) (A) (A) (A) (A) (A) (A)
                 (A) (A) (A) (A) (A) (A) (A) (A) (A) (A) (A) (A)
                 (A) (A) (A) (A) (A) (A) (A) (A) (A) (A) (A) (A)
                 (A) (A) (A) (A) (A) (A) (A) (A) (A) (A) (A) (A)
                 (A) (A) (A) (A) (A) (A) (A) (A) (A) (A) (A) (A)
                 (A) (A) (A) (A) (A) (A) (A) (A) (A) (A) (A) (A)
                 (A) (A) (A) (A) (A) (A) (A) (A) (A) (A) (A) (A)
                 (A) (A) (A) (A) (A) (A) (A) (A) (A) (A) (A) (A)
                 (A) (A) (A) (A) (A) (A) (A) (A) (A) (A) (A) (A)
                 (A) (A) (A) (A) (A) (A) (A) (A) (A) (A) (A) (A)
                 (A) (A) (A) (A) (A) (A) (A) (A) (A) (A) (A) (A)
                 (A) (A) (A) (A) (A) (A) (A) (A) (A) (A) (A) (A)
                 (A) (A) (A) (A) (A) (A) (A) (A) (A) (A) (A) (A)
                 (A) (A) (A) (A) (A) (A) (A) (A) (A) (A) (A) (A)
                 (A) (A) (A) (A) (A) (A) (A) (A) (A) (A) (A) (A)
                 (A) (A) (A) (A) (A) (A) (A) (A) (A) (A) (A) (A)
                 (A) (A) (A) (A) (A) (A) (A) (A) (A)
 The electronic state is 1-A.
 Alpha  occ. eigenvalues --  -14.09539 -10.08047 -10.06783 -10.06773 -10.04722
 Alpha  occ. eigenvalues --  -10.04112 -10.04070 -10.04055 -10.04014 -10.03968
 Alpha  occ. eigenvalues --  -10.03915 -10.03856 -10.03805 -10.03753 -10.03633
 Alpha  occ. eigenvalues --  -10.03614 -10.03604  -0.98540  -0.90889  -0.90089
 Alpha  occ. eigenvalues --   -0.84079  -0.80225  -0.79542  -0.78849  -0.76459
 Alpha  occ. eigenvalues --   -0.75337  -0.70010  -0.66119  -0.65300  -0.64367
 Alpha  occ. eigenvalues --   -0.61983  -0.59634  -0.56521  -0.55943  -0.52516
 Alpha  occ. eigenvalues --   -0.51800  -0.51153  -0.49536  -0.49042  -0.48586
 Alpha  occ. eigenvalues --   -0.47571  -0.46569  -0.45978  -0.45056  -0.44843
 Alpha  occ. eigenvalues --   -0.43969  -0.42548  -0.42011  -0.41501  -0.41319
 Alpha  occ. eigenvalues --   -0.39140  -0.38621  -0.37812  -0.37118  -0.35072
 Alpha  occ. eigenvalues --   -0.31349  -0.28950  -0.28756  -0.26100  -0.21571
 Alpha virt. eigenvalues --   -0.02594   0.00949   0.01345   0.02787   0.03633
 Alpha virt. eigenvalues --    0.03803   0.04181   0.04839   0.05084   0.06046
 Alpha virt. eigenvalues --    0.06153   0.06573   0.07224   0.07760   0.08038
 Alpha virt. eigenvalues --    0.08237   0.08760   0.08944   0.09414   0.09521
 Alpha virt. eigenvalues --    0.10433   0.11304   0.11456   0.11570   0.11811
 Alpha virt. eigenvalues --    0.12576   0.13198   0.13637   0.13785   0.14444
 Alpha virt. eigenvalues --    0.14712   0.14930   0.15037   0.15205   0.15310
 Alpha virt. eigenvalues --    0.15895   0.16044   0.16088   0.16221   0.16583
 Alpha virt. eigenvalues --    0.16830   0.17127   0.17304   0.17800   0.18317
 Alpha virt. eigenvalues --    0.18417   0.18672   0.18930   0.19059   0.19634
 Alpha virt. eigenvalues --    0.19847   0.20018   0.20239   0.20409   0.20549
 Alpha virt. eigenvalues --    0.20838   0.21117   0.21740   0.21998   0.22622
 Alpha virt. eigenvalues --    0.22879   0.23139   0.23338   0.23563   0.24156
 Alpha virt. eigenvalues --    0.24452   0.24967   0.25030   0.25907   0.25984
 Alpha virt. eigenvalues --    0.26342   0.26546   0.27331   0.27896   0.28023
 Alpha virt. eigenvalues --    0.28329   0.28498   0.28849   0.29418   0.29816
 Alpha virt. eigenvalues --    0.30051   0.30376   0.31088   0.31422   0.31806
 Alpha virt. eigenvalues --    0.32014   0.32358   0.32838   0.33064   0.33414
 Alpha virt. eigenvalues --    0.33764   0.34350   0.34550   0.34986   0.35250
 Alpha virt. eigenvalues --    0.35484   0.36112   0.36527   0.36595   0.36842
 Alpha virt. eigenvalues --    0.37276   0.37768   0.37940   0.38533   0.38881
 Alpha virt. eigenvalues --    0.38979   0.39287   0.39852   0.40108   0.41170
 Alpha virt. eigenvalues --    0.42244   0.42608   0.43328   0.43822   0.44879
 Alpha virt. eigenvalues --    0.46277   0.47887   0.48353   0.50291   0.52621
 Alpha virt. eigenvalues --    0.53507   0.53792   0.54464   0.54842   0.55922
 Alpha virt. eigenvalues --    0.57762   0.58246   0.59074   0.59475   0.59657
 Alpha virt. eigenvalues --    0.59988   0.60350   0.60638   0.60937   0.61399
 Alpha virt. eigenvalues --    0.61700   0.62347   0.62935   0.62972   0.63782
 Alpha virt. eigenvalues --    0.64567   0.65236   0.66170   0.66459   0.67113
 Alpha virt. eigenvalues --    0.68153   0.69017   0.69535   0.69958   0.70460
 Alpha virt. eigenvalues --    0.71134   0.71287   0.71591   0.72146   0.72673
 Alpha virt. eigenvalues --    0.73188   0.73740   0.74356   0.74661   0.75208
 Alpha virt. eigenvalues --    0.75644   0.75763   0.76437   0.77233   0.77627
 Alpha virt. eigenvalues --    0.79154   0.79623   0.80396   0.80809   0.82343
 Alpha virt. eigenvalues --    0.82552   0.82753   0.84671   0.85876   0.86549
 Alpha virt. eigenvalues --    0.87631   0.88785   0.89395   0.89668   0.89970
 Alpha virt. eigenvalues --    0.90981   0.91486   0.92467   0.92808   0.93392
 Alpha virt. eigenvalues --    0.94403   0.94870   0.95317   0.95913   0.96257
 Alpha virt. eigenvalues --    0.97338   0.97804   0.98075   0.98976   1.00178
 Alpha virt. eigenvalues --    1.00632   1.01202   1.02080   1.04163   1.04996
 Alpha virt. eigenvalues --    1.05721   1.06076   1.06870   1.08233   1.09005
 Alpha virt. eigenvalues --    1.09359   1.10555   1.10764   1.10954   1.12303
 Alpha virt. eigenvalues --    1.13750   1.14869   1.16726   1.17888   1.18428
 Alpha virt. eigenvalues --    1.19031   1.23041   1.26673   1.29975   1.32142
 Alpha virt. eigenvalues --    1.36288   1.38969   1.40702   1.42182   1.43401
 Alpha virt. eigenvalues --    1.46964   1.47866   1.49153   1.49815   1.50740
 Alpha virt. eigenvalues --    1.51666   1.52232   1.52500   1.53191   1.54163
 Alpha virt. eigenvalues --    1.55111   1.55323   1.55694   1.56609   1.58129
 Alpha virt. eigenvalues --    1.58396   1.59330   1.60294   1.61083   1.61681
 Alpha virt. eigenvalues --    1.61992   1.62831   1.63319   1.64725   1.65060
 Alpha virt. eigenvalues --    1.65144   1.66883   1.68329   1.69939   1.70394
 Alpha virt. eigenvalues --    1.71469   1.73172   1.73463   1.75222   1.75356
 Alpha virt. eigenvalues --    1.76133   1.76759   1.77226   1.78758   1.78984
 Alpha virt. eigenvalues --    1.79319   1.79990   1.82020   1.83926   1.85127
 Alpha virt. eigenvalues --    1.87676   1.88219   1.89661   1.90166   1.91258
 Alpha virt. eigenvalues --    1.91926   1.92632   1.94506   1.94849   1.95802
 Alpha virt. eigenvalues --    1.96195   1.96778   1.97366   1.97751   1.99605
 Alpha virt. eigenvalues --    2.00433   2.01730   2.02047   2.02867   2.03276
 Alpha virt. eigenvalues --    2.04697   2.05675   2.06659   2.07880   2.08298
 Alpha virt. eigenvalues --    2.10508   2.12527   2.13039   2.14920   2.16773
 Alpha virt. eigenvalues --    2.16950   2.19371   2.19678   2.23541   2.25610
 Alpha virt. eigenvalues --    2.27549   2.29430   2.30009   2.31584   2.32169
 Alpha virt. eigenvalues --    2.35641   2.39020   2.40529   2.42157   2.42474
 Alpha virt. eigenvalues --    2.42630   2.43007   2.43612   2.43721   2.46228
 Alpha virt. eigenvalues --    2.46411   2.50086   2.50879   2.52605   2.53251
 Alpha virt. eigenvalues --    2.53791   2.56666   2.57826   2.58777   2.62221
 Alpha virt. eigenvalues --    2.64064   2.64652   2.65178   2.65750   2.66326
 Alpha virt. eigenvalues --    2.67153   2.68796   2.69160   2.69357   2.70147
 Alpha virt. eigenvalues --    2.71257   2.72132   2.73010   2.73161   2.73516
 Alpha virt. eigenvalues --    2.73818   2.74746   2.75947   2.76504   2.77757
 Alpha virt. eigenvalues --    2.77967   2.79588   2.79916   2.81091   2.82279
 Alpha virt. eigenvalues --    2.82828   2.84379   2.86463   2.88491   2.88949
 Alpha virt. eigenvalues --    2.89283   2.90134   2.91254   2.92685   2.93993
 Alpha virt. eigenvalues --    2.96488   2.99732   3.02930   3.04553   3.06220
 Alpha virt. eigenvalues --    3.07777   3.08777   3.11863   3.17395   3.20627
 Alpha virt. eigenvalues --    3.23069   3.27653   3.32685   3.34325   3.35222
 Alpha virt. eigenvalues --    3.35370   3.44155   3.44812   3.45209   3.48891
 Alpha virt. eigenvalues --    3.50546   3.53355   3.54364   3.56194   3.63793
 Alpha virt. eigenvalues --    3.64782   3.65303   3.69706   3.72702   3.73505
 Alpha virt. eigenvalues --    3.75170   3.87353   3.91962   3.93378   3.95173
 Alpha virt. eigenvalues --    3.97221   4.01300   4.07388   4.08509   4.09357
 Alpha virt. eigenvalues --    4.13824   4.25328   4.50223   4.73083   4.75004
 Alpha virt. eigenvalues --    4.82563   4.95005  22.50472  22.58904  22.75179
 Alpha virt. eigenvalues --   22.81812  22.85151  22.85842  22.86273  22.86779
 Alpha virt. eigenvalues --   22.88200  22.97008  22.97267  22.98324  22.99612
 Alpha virt. eigenvalues --   23.07075  23.07516  23.09171  33.87363
          Condensed to atoms (all electrons):
               1          2          3          4          5          6
     1  N    7.127590   0.224922   0.004813  -0.170973  -0.179399  -0.061934
     2  C    0.224922  10.711442  -0.719721  -0.156926  -0.848577  -0.877505
     3  C    0.004813  -0.719721  13.039898   1.622509  -2.070192  -4.065383
     4  C   -0.170973  -0.156926   1.622509  13.298022  -5.587864  -2.460102
     5  C   -0.179399  -0.848577  -2.070192  -5.587864  12.123402   1.624434
     6  C   -0.061934  -0.877505  -4.065383  -2.460102   1.624434  13.450574
     7  C   -0.036469  -0.671753   2.728256   2.460443  -1.042237  -5.331118
     8  C    0.002566  -0.415950  -3.847181  -2.574951   1.565316   4.054728
     9  C    0.262555  -0.055341   0.013182   0.256607  -0.210785  -0.153871
    10  C    0.258549  -0.155466  -0.026888  -0.231210   0.269388   0.050000
    11  C   -0.000844   0.023778   3.715128   0.723099  -0.511876  -1.978773
    12  C    0.003496  -0.243900  -4.970576  -0.962246   0.273053   1.959740
    13  C    0.000163  -0.041437  -1.128098  -0.115679   0.144424  -0.052539
    14  C    0.000124   0.008276   1.616964   0.120355  -0.099671  -0.455273
    15  C   -0.000032   0.000322  -0.415224  -0.042910   0.031887   0.249670
    16  C    0.000023   0.000695  -0.382786  -0.012852  -0.000725   0.128758
    17  C    0.000002  -0.000849   0.159376   0.007541  -0.000844  -0.091399
    18  H   -0.042278  -0.194174   0.053402   0.337744  -0.003014   0.068119
    19  H   -0.041242  -0.219813   0.005587  -0.045254   0.466811   0.033954
    20  H   -0.001740   0.033211  -0.254267  -0.086789   0.062836   0.558372
    21  H   -0.002604   0.059085  -0.051050   0.045054  -0.035363  -0.053851
    22  H   -0.001076  -0.039240  -0.033261  -0.017341   0.017451   0.157241
    23  H   -0.086777   0.103952  -0.004678  -0.092309   0.024028  -0.005657
    24  H   -0.087530   0.050062   0.001816  -0.013819  -0.005823  -0.024189
    25  H   -0.053473  -0.166609   0.006894   0.265321  -0.131933   0.035809
    26  H   -0.089647   0.019474   0.002672  -0.006250   0.003716   0.021703
    27  H   -0.050835  -0.201756   0.010647  -0.136483   0.275602  -0.018820
    28  H   -0.088949   0.160568  -0.002371   0.034921  -0.131887  -0.003783
    29  H   -0.001094  -0.011457  -0.141407  -0.067804   0.022330   0.040848
    30  H    0.000073  -0.002284  -0.027825   0.002914  -0.002704  -0.064469
    31  H    0.000019  -0.000482   0.065911   0.009004  -0.003519  -0.030074
    32  H   -0.000001   0.000048  -0.000133  -0.000224  -0.000063   0.004745
    33  H   -0.000000   0.000028  -0.007132  -0.000028  -0.000069   0.003206
    34  H    0.000000   0.000011   0.005493   0.000142  -0.000005  -0.001661
               7          8          9         10         11         12
     1  N   -0.036469   0.002566   0.262555   0.258549  -0.000844   0.003496
     2  C   -0.671753  -0.415950  -0.055341  -0.155466   0.023778  -0.243900
     3  C    2.728256  -3.847181   0.013182  -0.026888   3.715128  -4.970576
     4  C    2.460443  -2.574951   0.256607  -0.231210   0.723099  -0.962246
     5  C   -1.042237   1.565316  -0.210785   0.269388  -0.511876   0.273053
     6  C   -5.331118   4.054728  -0.153871   0.050000  -1.978773   1.959740
     7  C   12.364282  -3.667408   0.081923  -0.062071   1.408705  -2.124434
     8  C   -3.667408  10.204899  -0.042410   0.035943  -3.038160   4.209967
     9  C    0.081923  -0.042410   4.962389  -0.078070   0.005270  -0.006421
    10  C   -0.062071   0.035943  -0.078070   4.955011  -0.003424   0.003875
    11  C    1.408705  -3.038160   0.005270  -0.003424  12.149337  -4.523776
    12  C   -2.124434   4.209967  -0.006421   0.003875  -4.523776  13.757561
    13  C   -0.174798   0.006478  -0.000966   0.001249  -2.556447   0.886014
    14  C    0.242142  -1.020421   0.000596  -0.000350   0.980376  -4.458912
    15  C   -0.182844   0.092685  -0.000189   0.000150  -0.782034   1.446496
    16  C   -0.098946  -0.030349  -0.000012   0.000010  -0.207888   1.154491
    17  C    0.059968  -0.033860   0.000024  -0.000006  -0.367262  -0.823131
    18  H    0.007278   0.010259   0.008478  -0.000845   0.007905   0.010970
    19  H    0.031539   0.025039  -0.006428   0.018720  -0.002936   0.003958
    20  H   -0.085863   0.080149  -0.002946  -0.000761  -0.073661   0.088338
    21  H    0.315066   0.001321   0.000581  -0.002276   0.008584   0.008832
    22  H   -0.063404   0.388540  -0.000452   0.000491  -0.048570  -0.127332
    23  H   -0.000170  -0.001162   0.368531   0.020563   0.000125  -0.000467
    24  H    0.015795  -0.003788   0.425199  -0.013378   0.000294  -0.000194
    25  H   -0.019240   0.000926   0.428634  -0.004462  -0.000642   0.000198
    26  H   -0.021544   0.004441  -0.017267   0.424370  -0.000297   0.000486
    27  H    0.052190   0.003768  -0.003381   0.429843   0.000008   0.001133
    28  H   -0.023658  -0.003708   0.023526   0.365597   0.000118  -0.000337
    29  H   -0.062901  -0.094885  -0.000650   0.000432  -0.054845   0.466239
    30  H    0.026923  -0.041947   0.000039  -0.000018  -0.230466   0.014733
    31  H    0.017754  -0.013200   0.000079  -0.000021  -0.048594  -0.093300
    32  H   -0.003464   0.001064  -0.000001   0.000001   0.045060   0.022481
    33  H   -0.002074  -0.007529  -0.000001  -0.000000   0.021570   0.021351
    34  H    0.001578   0.005370   0.000000  -0.000000   0.037167  -0.016913
              13         14         15         16         17         18
     1  N    0.000163   0.000124  -0.000032   0.000023   0.000002  -0.042278
     2  C   -0.041437   0.008276   0.000322   0.000695  -0.000849  -0.194174
     3  C   -1.128098   1.616964  -0.415224  -0.382786   0.159376   0.053402
     4  C   -0.115679   0.120355  -0.042910  -0.012852   0.007541   0.337744
     5  C    0.144424  -0.099671   0.031887  -0.000725  -0.000844  -0.003014
     6  C   -0.052539  -0.455273   0.249670   0.128758  -0.091399   0.068119
     7  C   -0.174798   0.242142  -0.182844  -0.098946   0.059968   0.007278
     8  C    0.006478  -1.020421   0.092685  -0.030349  -0.033860   0.010259
     9  C   -0.000966   0.000596  -0.000189  -0.000012   0.000024   0.008478
    10  C    0.001249  -0.000350   0.000150   0.000010  -0.000006  -0.000845
    11  C   -2.556447   0.980376  -0.782034  -0.207888  -0.367262   0.007905
    12  C    0.886014  -4.458912   1.446496   1.154491  -0.823131   0.010970
    13  C   15.439449  -3.574701  -3.384204  -0.453754   1.687347   0.004175
    14  C   -3.574701  13.954451  -0.032075  -1.379682   0.096933  -0.000846
    15  C   -3.384204  -0.032075   9.058310   0.709651  -0.882892  -0.000304
    16  C   -0.453754  -1.379682   0.709651   6.603997  -0.260871  -0.000281
    17  C    1.687347   0.096933  -0.882892  -0.260871   6.460671   0.000128
    18  H    0.004175  -0.000846  -0.000304  -0.000281   0.000128   0.679297
    19  H    0.002396  -0.000867   0.000458   0.000022  -0.000018  -0.003204
    20  H   -0.046087  -0.000436   0.005349   0.005574  -0.002563  -0.047075
    21  H   -0.000146   0.003349  -0.005986  -0.001785   0.001090   0.002919
    22  H   -0.106304  -0.000649   0.060814   0.013306  -0.022516   0.000227
    23  H   -0.000075   0.000059  -0.000001  -0.000006   0.000001  -0.002566
    24  H   -0.000069   0.000039  -0.000011   0.000000   0.000001  -0.001546
    25  H   -0.000057   0.000021   0.000008   0.000021  -0.000004  -0.006478
    26  H    0.000101  -0.000035   0.000010   0.000000  -0.000000   0.002927
    27  H    0.000039   0.000022  -0.000010   0.000001   0.000002  -0.002691
    28  H   -0.000087   0.000022  -0.000004   0.000002  -0.000001  -0.000056
    29  H    0.181728  -0.100114   0.014136   0.035115  -0.028273   0.003885
    30  H    0.794172  -0.077856  -0.178355   0.017484   0.066352   0.000358
    31  H   -0.053334   0.504000   0.000681  -0.089088   0.032838   0.000036
    32  H   -0.226010   0.026742   0.523237   0.023045  -0.115879  -0.000005
    33  H    0.003384  -0.147149   0.016722   0.490856  -0.084305   0.000004
    34  H    0.010383   0.017728  -0.088212  -0.106146   0.459509   0.000001
              19         20         21         22         23         24
     1  N   -0.041242  -0.001740  -0.002604  -0.001076  -0.086777  -0.087530
     2  C   -0.219813   0.033211   0.059085  -0.039240   0.103952   0.050062
     3  C    0.005587  -0.254267  -0.051050  -0.033261  -0.004678   0.001816
     4  C   -0.045254  -0.086789   0.045054  -0.017341  -0.092309  -0.013819
     5  C    0.466811   0.062836  -0.035363   0.017451   0.024028  -0.005823
     6  C    0.033954   0.558372  -0.053851   0.157241  -0.005657  -0.024189
     7  C    0.031539  -0.085863   0.315066  -0.063404  -0.000170   0.015795
     8  C    0.025039   0.080149   0.001321   0.388540  -0.001162  -0.003788
     9  C   -0.006428  -0.002946   0.000581  -0.000452   0.368531   0.425199
    10  C    0.018720  -0.000761  -0.002276   0.000491   0.020563  -0.013378
    11  C   -0.002936  -0.073661   0.008584  -0.048570   0.000125   0.000294
    12  C    0.003958   0.088338   0.008832  -0.127332  -0.000467  -0.000194
    13  C    0.002396  -0.046087  -0.000146  -0.106304  -0.000075  -0.000069
    14  C   -0.000867  -0.000436   0.003349  -0.000649   0.000059   0.000039
    15  C    0.000458   0.005349  -0.005986   0.060814  -0.000001  -0.000011
    16  C    0.000022   0.005574  -0.001785   0.013306  -0.000006   0.000000
    17  C   -0.000018  -0.002563   0.001090  -0.022516   0.000001   0.000001
    18  H   -0.003204  -0.047075   0.002919   0.000227  -0.002566  -0.001546
    19  H    0.678100   0.003447  -0.041839   0.009708   0.000228   0.001056
    20  H    0.003447   0.679417  -0.010257   0.010873   0.000255   0.000306
    21  H   -0.041839  -0.010257   0.637758  -0.028282   0.000130   0.000020
    22  H    0.009708   0.010873  -0.028282   0.844041  -0.000014  -0.000004
    23  H    0.000228   0.000255   0.000130  -0.000014   0.642475  -0.057006
    24  H    0.001056   0.000306   0.000020  -0.000004  -0.057006   0.635682
    25  H   -0.003016   0.000617  -0.000217  -0.000077  -0.043239  -0.028796
    26  H    0.002317  -0.000286  -0.000039   0.000030   0.006730  -0.001581
    27  H   -0.003230  -0.000234  -0.000545  -0.000171  -0.002770  -0.001078
    28  H   -0.010785   0.000085   0.001390  -0.000332  -0.000405   0.007845
    29  H    0.001078  -0.005171  -0.000393   0.034413   0.000091  -0.000105
    30  H   -0.000148  -0.004191   0.000086  -0.011716  -0.000003   0.000001
    31  H   -0.000034  -0.001989   0.000235  -0.000671   0.000002   0.000006
    32  H    0.000003   0.000087  -0.000068   0.002454   0.000000  -0.000000
    33  H    0.000001  -0.000103  -0.000038   0.000973  -0.000000  -0.000000
    34  H   -0.000001   0.000035   0.000047  -0.000644   0.000000   0.000000
              25         26         27         28         29         30
     1  N   -0.053473  -0.089647  -0.050835  -0.088949  -0.001094   0.000073
     2  C   -0.166609   0.019474  -0.201756   0.160568  -0.011457  -0.002284
     3  C    0.006894   0.002672   0.010647  -0.002371  -0.141407  -0.027825
     4  C    0.265321  -0.006250  -0.136483   0.034921  -0.067804   0.002914
     5  C   -0.131933   0.003716   0.275602  -0.131887   0.022330  -0.002704
     6  C    0.035809   0.021703  -0.018820  -0.003783   0.040848  -0.064469
     7  C   -0.019240  -0.021544   0.052190  -0.023658  -0.062901   0.026923
     8  C    0.000926   0.004441   0.003768  -0.003708  -0.094885  -0.041947
     9  C    0.428634  -0.017267  -0.003381   0.023526  -0.000650   0.000039
    10  C   -0.004462   0.424370   0.429843   0.365597   0.000432  -0.000018
    11  C   -0.000642  -0.000297   0.000008   0.000118  -0.054845  -0.230466
    12  C    0.000198   0.000486   0.001133  -0.000337   0.466239   0.014733
[...]
 .00089321,-0.00010628,-0.00003723,0.00018875,-0.00004426,0.00292644,-0
 .00148152,-0.00042983,0.00000034,0.00000085,-0.00000866,-0.00000845,0.
 00000668,-0.00000111,0.00000443,0.00000795,0.00001000,-0.00000898,0.00
 000304,0.00000025,0.00000368,0.00000489,0.00000666,0.00000511,0.000003
 19,-0.00000485,0.07499452,0.33278639,0.00013490,0.00008884,0.00017187,
 -0.00007621,-0.00043034,-0.00021821,0.00118716,0.00011319,-0.00618871,
 -0.00025853,0.00013799,-0.00044730,0.00039596,0.00030867,0.00000704,0.
 00038125,-0.00055539,-0.00001019,-0.00065011,0.00029163,-0.00014814,-0
 .00234424,0.00076825,0.00639818,-0.00002011,-0.00004635,-0.00000604,-0
 .00003738,0.00004373,0.00002831,-0.00193861,-0.00119464,0.00293122,-0.
 00064807,-0.01305792,-0.03885073,0.00030973,-0.00002511,0.00215184,0.0
 0036861,0.00027961,-0.00093652,-0.00051273,0.00007930,0.00008780,-0.00
 010282,0.00001390,-0.00020899,0.00019934,-0.00019592,0.00004908,0.0000
 1210,0.00002006,0.00013488,0.00000082,0.00001168,0.00005368,0.00050883
 ,0.00029651,0.00099261,-0.00004405,0.00004449,0.00011528,-0.00001163,0
 .00015451,0.01005829,0.00001417,0.00001171,-0.00001488,0.00000003,0.00
 000206,-0.00000624,-0.00000947,0.00001025,0.00000475,0.00000179,0.0000
 0351,-0.00000035,-0.00000439,-0.00000707,-0.00000840,-0.00001206,-0.00
 000956,0.00000555,0.00305866,0.01281698,0.02383619,0.00014314,0.000015
 30,0.00002107,-0.00011143,-0.00001238,-0.00001445,-0.00005641,0.000082
 92,0.00006364,0.00004457,-0.00002031,0.00000935,0.00003652,0.00003484,
 -0.00000270,0.00002252,0.00000018,-0.00000548,-0.00000972,-0.00000778,
 -0.00000207,-0.00084122,-0.00128594,-0.00039475,-0.00000848,-0.0000389
 9,0.00000526,-0.00001819,0.00004284,-0.00000484,0.01146742,-0.00845134
 ,-0.00245098,-0.00061519,0.00128587,0.00006662,-0.15388709,0.12881538,
 0.03761706,-0.00029619,-0.00269653,-0.00038715,-0.01341423,0.02569856,
 0.00664966,-0.00046444,-0.00083508,-0.00018611,-0.00500164,-0.00205240
 ,-0.00001992,0.00000951,0.00000581,-0.00000018,0.00001188,-0.00000560,
 0.00000187,-0.00001203,-0.00000955,0.00000300,-0.00001878,0.00001438,-
 0.00001073,-0.00246691,-0.00065500,-0.00082935,-0.00000429,0.00000838,
 -0.00000644,0.00000756,-0.00000047,-0.00000011,-0.00000442,0.00000499,
 -0.00000066,0.00000694,0.00000224,0.00000046,-0.00000190,-0.00001118,-
 0.00000598,-0.00000320,-0.00000700,0.00000218,0.00018728,0.00013652,0.
 00004951,0.16467741,0.00006691,0.00001413,0.00001041,-0.00007120,-0.00
 001895,-0.00001330,-0.00021021,0.00050511,0.00015399,0.00000504,0.0000
 5939,-0.00001959,0.00001642,0.00001550,0.00002004,0.00018336,-0.000023
 76,0.00001008,-0.00003005,-0.00002597,-0.00002580,0.00001605,-0.000257
 99,0.00013458,-0.00000403,-0.00002430,0.00000159,-0.00000797,0.0000174
 4,-0.00000448,0.01829866,-0.01658867,-0.00561379,0.00178601,0.00045911
 ,0.00098243,0.12994717,-0.22896863,-0.05335411,-0.00346244,-0.00338121
 ,-0.00226710,-0.00446213,0.00612093,0.00080701,-0.00091576,-0.00018664
 ,0.00021749,-0.00143130,0.00192073,-0.00139341,0.00001951,0.00000682,-
 0.00000524,0.00000794,-0.00000365,0.00000033,-0.00000934,0.00000441,0.
 00000644,-0.00002975,0.00002797,-0.00001074,-0.00054375,0.00091758,-0.
 00041450,-0.00000359,0.00000406,-0.00000235,0.00000624,-0.00000111,-0.
 00000007,-0.00000210,0.00000311,-0.00000053,0.00000605,0.00000289,0.00
 000005,-0.00000145,-0.00000364,-0.00000011,-0.00000339,-0.00000324,-0.
 00000010,-0.00012089,0.00006651,0.00006692,-0.14032719,0.23979405,-0.0
 0003107,0.00000215,-0.00001302,0.00001298,0.00001859,0.00001295,-0.000
 03214,0.00034225,-0.00019059,0.00000954,0.00005718,0.00002061,-0.00002
 489,-0.00001702,-0.00004415,0.00010096,-0.00001550,-0.00005114,-0.0000
 0268,-0.00007335,0.00005517,0.00008668,-0.00104728,-0.00009848,0.00000
 340,0.00000077,0.00000627,0.00000591,-0.00000783,0.00000942,0.00526861
 ,-0.00375872,0.00265808,-0.00083559,0.00132736,-0.00324457,0.03793466,
 -0.05412604,-0.05178056,-0.00087511,-0.00190686,0.00599735,-0.00083786
 ,-0.00042265,0.00404384,-0.00004325,0.00034314,-0.00090559,0.00013396,
 -0.00147263,0.00712507,0.00001098,0.00000417,0.00000984,-0.00000061,-0
 .00000124,0.00000089,-0.00000453,-0.00000313,-0.00000476,-0.00002037,0
 .00003805,0.00002449,-0.00094734,0.00009901,0.00087828,-0.00000014,0.0
 0000024,-0.00000035,0.00000134,-0.00000133,0.00000046,-0.00000249,-0.0
 0000175,-0.00000149,0.00000135,0.00000093,-0.00000017,-0.00000096,0.00
 000007,0.00000048,0.00000055,0.00000337,-0.00000497,0.00003502,0.00004
 260,-0.00001366,-0.04000058,0.05950662,0.04049435,0.00015360,0.0000184
 7,0.00002509,-0.00012375,-0.00000996,-0.00001819,-0.00000351,-0.000030
 60,-0.00000029,0.00005399,-0.00005233,0.00001122,0.00005413,0.00003286
 ,0.00000005,-0.00002386,0.00001754,-0.00001990,-0.00000608,0.00003986,
 -0.00000378,-0.00005354,-0.00024484,0.00000078,-0.00001119,-0.00004555
 ,0.00000563,-0.00001915,0.00003985,-0.00000620,0.00914610,0.01599543,0
 .00344423,0.00108816,0.00210345,-0.00005508,-0.00162766,0.00305407,0.0
 0097996,-0.09909782,-0.09875503,-0.01986408,-0.00094967,0.00066461,0.0
 0013674,-0.00678192,-0.02873399,-0.00610861,-0.00543480,0.00015356,0.0
 0045357,0.00000550,0.00000772,0.00000201,0.00000854,-0.00000518,0.0000
 0105,-0.00001900,-0.00003127,0.00001366,-0.00000806,-0.00000163,0.0000
 0297,0.00009276,-0.00003761,0.00005688,-0.00000442,0.00000899,-0.00000
 772,0.00000785,-0.00000105,-0.00000009,-0.00000484,0.00000659,0.000000
 57,0.00000747,0.00000171,-0.00000010,-0.00000141,-0.00001098,-0.000004
 87,-0.00000317,-0.00000703,0.00000180,-0.00028631,-0.00051825,0.000078
 04,0.00031822,0.00092436,0.00017797,0.10297359,-0.00001971,0.00001198,
 -0.00000299,0.00002475,-0.00000402,-0.00000005,-0.00002458,-0.00000525
 ,-0.00005342,-0.00000109,0.00004108,0.00000545,-0.00001960,0.00000544,
 0.00001145,0.00003657,-0.00007116,0.00003654,0.00002682,-0.00002237,-0
 .00000324,0.00059723,0.00038298,0.00007907,0.00000109,-0.00000266,-0.0
 0000355,0.00000633,-0.00001513,-0.00000188,-0.01203798,-0.01761236,-0.
 00437172,-0.00228160,0.00038974,0.00114703,0.00384715,-0.00196103,-0.0
 0184474,-0.09808289,-0.28528722,-0.05178662,0.00089939,0.00026022,0.00
 020385,0.00115940,0.00009179,-0.00090076,-0.00047966,0.00233027,-0.000
 99585,0.00000791,0.00000121,-0.00000116,-0.00000132,0.00000221,-0.0000
 0099,0.00001283,0.00002938,-0.00003874,-0.00000213,0.00000766,-0.00000
 960,-0.00015799,0.00017843,-0.00007306,0.00000132,-0.00000087,-0.00000
 080,-0.00000281,0.00000127,-0.00000012,0.00000124,0.00000194,0.0000034
 3,-0.00000187,-0.00000054,-0.00000023,0.00000048,0.00000366,0.00000332
 ,0.00000088,0.00000174,-0.00000080,0.00121299,0.00039975,-0.00008131,-
 0.00063603,-0.00100612,-0.00027142,0.10632512,0.30163790,0.00002909,0.
 00001256,0.00000113,-0.00002490,0.00000206,0.00000544,0.00002552,0.000
 03898,0.00016234,0.00002241,0.00000106,-0.00001626,0.00000218,0.000010
 06,-0.00003553,0.00000305,-0.00006953,-0.00001356,-0.00000330,0.000014
 28,0.00000808,-0.00009340,0.00021359,-0.00000886,-0.00000377,-0.000013
 42,0.00000965,-0.00000297,0.00000366,0.00000260,-0.00253137,-0.0053153
 9,0.00286204,-0.00082642,0.00049444,-0.00380317,0.00109186,-0.00198322
 ,0.00562712,-0.01979056,-0.05197711,-0.04715895,0.00010154,0.00022447,
 -0.00087712,0.00067423,0.00032709,0.00365221,0.00038738,-0.00116090,0.
 00683050,0.00000530,0.00000170,0.00000616,0.00000078,0.00000096,0.0000
 0004,0.00001035,0.00001022,0.00002905,-0.00000262,0.00000610,0.0000214
 4,-0.00004403,0.00007148,0.00010680,-0.00000132,0.00000205,-0.00000648
 ,-0.00000002,0.00000086,-0.00000052,0.00000026,0.00000052,0.00000119,0
 .00000032,0.00000017,0.00000117,-0.00000057,-0.00000262,-0.00000251,0.
 00000062,0.00000055,-0.00000156,0.00035736,0.00032858,0.00024163,-0.00
 018725,-0.00023410,0.00012074,0.02104830,0.05779713,0.03695036,-0.0001
 4025,-0.00000991,-0.00002240,0.00010595,0.00001047,0.00001198,-0.00002
 499,0.00004823,-0.00000412,-0.00004946,0.00004872,-0.00000529,-0.00005
 170,-0.00002956,0.00000642,0.00000916,0.00000494,0.00000601,0.00000708
 ,-0.00006132,0.00000599,0.00005936,-0.00002479,0.00004180,0.00000906,0
 .00003462,-0.00000399,0.00001977,-0.00004150,0.00000403,-0.00543188,-0
 .00001962,0.00037943,0.00016264,-0.00131955,-0.00024206,-0.00697308,-0
 .02872208,-0.00641767,-0.00110991,0.00073603,0.00018828,-0.10000450,-0
 .09906861,-0.02088152,-0.00152831,0.00335459,0.00102153,0.01106842,0.0
 1782424,0.00390516,-0.00000404,-0.00000486,-0.00000072,-0.00001061,0.0
 0000387,-0.00000223,0.00001178,0.00002236,-0.00000905,0.00000660,0.000
 00840,-0.00000299,-0.00001447,0.00003262,-0.00001452,0.00000331,-0.000
 00768,0.00000620,-0.00000587,0.00000014,0.00000001,0.00000354,-0.00000
 492,0.00000034,-0.00000559,-0.00000077,0.00000010,0.00000116,0.0000110
 7,0.00000660,0.00000225,0.00000675,-0.00000332,-0.00042291,-0.00012307
 ,-0.00002196,0.00104734,0.00048042,-0.00009397,0.00005226,-0.00007325,
 -0.00004476,0.10212043,-0.00017781,-0.00001946,-0.00002670,0.00014192,
 0.00001509,0.00001623,-0.00004001,0.00000072,0.00000563,-0.00006752,0.
 00004614,-0.00001249,-0.00005799,-0.00005204,0.00000814,0.00002045,0.0
 0003401,0.00000819,0.00002807,-0.00004527,0.00000417,0.00005107,-0.000
 04898,-0.00002200,0.00001342,0.00004705,-0.00000632,0.00002506,-0.0000
 4814,0.00000505,-0.00027073,0.00217283,-0.00127381,0.00008369,-0.00007
 524,-0.00005413,0.00123566,0.00000214,-0.00091462,0.00068429,0.0004913
 2,0.00028635,-0.09939883,-0.28860687,-0.05537604,0.00387244,-0.0017904
 3,-0.00213116,-0.01214903,-0.01608961,-0.00424476,-0.00000514,-0.00000
 671,-0.00000060,-0.00000906,0.00000532,-0.00000159,0.00000800,0.000008
 44,-0.00000254,0.00000895,0.00000125,-0.00000083,0.00001805,-0.0000074
 4,-0.00001279,0.00000446,-0.00001018,0.00000880,-0.00000800,0.00000032
 ,-0.00000011,0.00000490,-0.00000682,0.00000003,-0.00000757,-0.00000193
 ,0.00000032,0.00000167,0.00001364,0.00000713,0.00000316,0.00000822,-0.
 00000312,-0.00006005,-0.00001931,0.00004867,-0.00033007,0.00047565,0.0
 0117710,-0.00007080,-0.00010568,0.00020410,0.10666965,0.30390383,-0.00
 003220,-0.00000057,-0.00000685,0.00002606,0.00000451,0.00000211,-0.000
 01468,-0.00000582,-0.00000541,-0.00000844,0.00001051,0.00000414,-0.000
 01497,-0.00001156,0.00000135,0.00000280,0.00000362,-0.00001699,0.00001
 111,-0.00001628,-0.00000784,-0.00000851,-0.00000667,0.00001011,0.00000
 171,0.00000584,0.00000299,0.00000501,-0.00000968,0.00000307,0.00058434
 ,-0.00101765,0.00740725,-0.00010543,0.00001578,0.00016102,0.00035845,-
 0.00011400,0.00377477,0.00037051,0.00021526,-0.00084593,-0.02062546,-0
 .05569585,-0.04988465,0.00099184,-0.00219464,0.00625205,-0.00321692,-0
 .00481603,0.00271079,-0.00000141,0.00000009,0.00000011,-0.00000233,0.0
 0000126,0.00000209,0.00000067,0.00000244,0.00000249,0.00000153,0.00000
 066,0.00000722,-0.00002921,-0.00001888,0.00003782,-0.00000018,-0.00000
 131,-0.00000029,-0.00000153,0.00000040,0.00000015,0.00000098,-0.000001
 52,-0.00000017,-0.00000135,-0.00000010,0.00000053,0.00000041,0.0000019
 3,0.00000045,0.00000048,0.00000220,-0.00000198,-0.00003429,0.00002780,
 -0.00024714,-0.00030598,0.00122355,-0.00418918,-0.00004858,0.00017850,
 -0.00090107,0.02232445,0.06142688,0.03933645,-0.00018482,-0.00002934,-
 0.00002833,0.00014641,0.00001637,0.00001725,-0.00002683,0.00009777,-0.
 00004396,-0.00006958,0.00004057,-0.00001135,-0.00005730,-0.00004423,0.
 00000677,0.00001397,0.00004280,0.00000379,-0.00001504,-0.00005325,0.00
 000629,-0.00037750,-0.00023072,-0.00000706,0.00001368,0.00005736,-0.00
 000611,0.00002209,-0.00004359,0.00000695,-0.00482228,-0.00200336,-0.00
 003532,-0.00030918,0.00138318,0.00029118,-0.00063369,-0.00102051,-0.00
 022745,-0.01275446,0.02570657,0.00624685,0.00019950,-0.00286087,-0.000
 39375,-0.15938735,0.13260017,0.03336354,0.01082171,-0.01092324,-0.0026
 2174,-0.00001060,-0.00000816,0.00000108,-0.00001154,0.00000481,-0.0000
 0055,0.00001363,0.00000965,-0.00000005,0.00000987,-0.00000213,0.,0.000
 02257,0.00001659,0.00000908,0.00000460,-0.00001089,0.00001011,-0.00000
 812,0.00000028,0.00000037,0.00000564,-0.00000906,-0.00000209,-0.000008
 04,-0.00000195,0.00000033,0.00000196,0.00001230,0.00000517,0.00000309,
 0.00000784,-0.00000223,-0.00002915,-0.00006357,-0.00000861,0.00001522,
 0.00011133,-0.00000745,0.00099228,-0.00041504,-0.00025434,0.00034342,-
 0.00055834,-0.00014700,0.16541794,0.00013801,0.00001894,0.00002242,-0.
 00011371,-0.00001045,-0.00001148,0.00002891,0.00002232,-0.00000077,0.0
 0005589,-0.00003433,0.00000718,0.00004264,0.00004460,-0.00000750,-0.00
 001885,-0.00003350,0.00000451,-0.00002827,0.00002691,-0.00000103,-0.00
 012589,-0.00001243,0.00001776,-0.00001077,-0.00003957,0.00000319,-0.00
 001802,0.00003379,-0.00000562,-0.00163388,0.00186735,-0.00116727,-0.00
 008022,0.00005274,0.00001635,-0.00098506,-0.00003803,0.00024078,-0.004
 38384,0.00627190,0.00073406,-0.00336575,-0.00353338,-0.00224208,0.1326
 9935,-0.23060069,-0.04699261,0.01913759,-0.01575027,-0.00496751,0.0000
 0440,0.00000515,-0.00000034,0.00000484,-0.00000404,0.00000026,-0.00000
 617,-0.00000410,-0.00000270,-0.00000593,0.00000240,-0.00000208,-0.0000
 0771,0.00000888,-0.00000623,-0.00000341,0.00000801,-0.00000652,0.00000
 632,-0.00000048,-0.00000024,-0.00000427,0.00000639,0.00000069,0.000005
 98,0.00000168,-0.00000031,-0.00000132,-0.00000958,-0.00000401,-0.00000
 264,-0.00000640,0.00000208,0.00000571,0.00000840,0.00000704,0.00009526
 ,-0.00006149,0.00020964,0.00051410,0.00045242,0.00099958,0.00089684,-0
 .00092608,-0.00028051,-0.14252381,0.24147574,0.00004044,0.00000756,0.0
 0000272,-0.00003466,-0.00000131,-0.00000388,0.00003041,0.00001756,-0.0
 0002456,0.00002229,-0.00000978,0.00000386,0.00001148,0.00001232,-0.000
 00357,-0.00000871,-0.00002053,-0.00000569,-0.00001472,0.00001346,0.000
 01012,-0.00001249,-0.00001794,-0.00010006,-0.00000372,-0.00001352,0.00
 000598,-0.00000564,0.00000917,0.00000146,0.00008877,-0.00132054,0.0070
 4324,-0.00004788,-0.00008284,0.00012692,-0.00016028,0.00030669,-0.0008
 2504,-0.00058954,-0.00031696,0.00363587,-0.00042162,-0.00225357,0.0066
 0513,0.03341241,-0.04694449,-0.04897378,0.00395213,-0.00389948,0.00293
 824,0.00000215,0.00000237,0.00000026,0.00000162,-0.00000116,0.00000076
 ,-0.00000343,0.00000050,0.00000360,-0.00000145,0.00000130,0.00000165,0
 .00000967,0.00001607,-0.00000743,-0.00000137,0.00000272,-0.00000421,0.
 00000176,0.00000009,0.00000020,-0.00000109,0.00000117,0.00000015,0.000
 00181,0.00000061,0.,-0.00000042,-0.00000333,-0.00000174,-0.00000016,-0
 .00000101,-0.00000015,0.00001014,0.00001965,-0.00000866,-0.00001442,0.
 00023335,-0.00098692,-0.00004926,0.00104182,-0.00399714,0.00016814,-0.
 00019331,0.00006458,-0.03615955,0.05233692,0.03840924,-0.00014461,-0.0
 0001741,-0.00002191,0.00011991,0.00001312,0.00001177,0.00000220,-0.000
 02637,-0.00001508,-0.00005015,0.00003132,-0.00000738,-0.00004240,-0.00
 004121,0.00000243,0.00000328,0.00001613,0.00000706,0.00001620,-0.00002
 063,0.00000257,0.00000409,0.00008334,0.00000764,0.00001067,0.00004012,
 -0.00000460,0.00002062,-0.00003856,0.00000634,0.00063219,0.00027858,0.
 00000820,-0.00000390,-0.00000571,-0.00003610,-0.00012278,0.00332660,0.
 00099743,0.00120233,-0.00229165,-0.00032400,-0.01339707,-0.00565599,-0
 .00076994,-0.00754263,0.00171588,0.00070637,-0.34008671,-0.03662918,0.
 00183286,-0.00000513,-0.00000601,0.00000037,-0.00000691,0.00000516,-0.
 00000072,0.00000981,0.00000969,-0.00000428,0.00000939,-0.00000439,0.00
 000163,0.00001651,-0.00004383,0.00001673,0.00000397,-0.00000838,0.0000
 0678,-0.00000762,0.00000093,-0.00000010,0.00000478,-0.00000565,0.00000
 007,-0.00000737,-0.00000217,0.00000019,0.00000161,0.00001078,0.0000047
 0,0.00000318,0.00000677,-0.00000208,-0.00000351,-0.00002217,0.00000007
 ,-0.00075979,-0.00023894,-0.00002290,-0.00049428,0.00007604,0.00005103
 ,0.00074405,0.00033607,-0.00008186,0.00065791,-0.00031632,-0.00022280,
 0.35921218,-0.00001977,-0.00000131,-0.00000268,0.00001647,-0.00000247,
 0.00000039,-0.00002708,0.00003428,0.00001231,-0.00001073,0.00001274,-0
 .00000409,-0.00000578,-0.00000306,0.00000279,0.00002013,-0.00000076,0.
 00000766,0.00000124,-0.00001187,-0.00000341,0.00004491,0.00001465,0.00
 001995,0.00000218,0.00000544,-0.00000140,0.00000288,-0.00000499,0.0000
 0026,0.00017860,-0.00140080,-0.00008500,0.00002666,0.00009394,0.000233
 58,0.00280009,-0.00293474,-0.00231922,-0.00173038,-0.00433615,-0.00244
 511,0.02439275,0.00745870,0.00020010,-0.02839841,0.00150370,0.00045366
 ,-0.03656988,-0.06144574,-0.00454266,0.00000083,-0.00000063,-0.0000014
 7,-0.00000069,0.00000054,-0.00000013,0.00000228,0.00000274,-0.00000268
 ,-0.00000160,0.00000312,-0.00000228,-0.00003409,0.00005008,-0.00004171
 ,0.00000058,-0.00000121,0.00000121,-0.00000094,0.00000028,-0.00000005,
 0.00000055,-0.00000081,-0.00000001,-0.00000082,0.00000002,0.00000009,0
 .00000016,0.00000152,0.00000102,0.00000020,0.00000075,-0.00000014,0.00
 008653,0.00003018,-0.00001587,0.00113936,0.00013999,-0.00004649,-0.001
 35225,-0.00013663,-0.00000996,-0.00068247,0.00063420,0.00106984,0.0006
 9446,0.00075721,0.00105645,0.03942403,0.05953712,-0.00000707,0.0000004
 4,-0.00000271,0.00000257,0.00000548,0.00000887,-0.00000065,0.00002934,
 -0.00006613,0.00000448,0.00000625,0.00000119,-0.00000660,-0.00000393,-
 0.00001554,0.00000975,-0.00001077,-0.00000983,0.00000320,-0.00000157,0
 .00001831,-0.00001144,-0.00011341,0.00003865,-0.00000010,-0.00000057,0
 .00000179,0.00000129,-0.00000205,0.00000254,0.00017240,-0.00013372,-0.
 00097542,-0.00026602,0.00019108,-0.00092759,0.00086108,-0.00228388,0.0
 0610894,-0.00033825,-0.00235945,0.00655823,0.00607913,0.00098712,0.003
 34337,-0.00579928,-0.00035231,0.00362473,0.00168714,-0.00459771,-0.036
 95468,0.00000153,0.00000084,0.00000517,-0.00000022,0.00000047,0.000001
 05,-0.00000050,0.00000160,-0.00000089,-0.00000135,0.00000363,0.0000036
 1,-0.00002579,0.00002777,0.00016366,0.00000006,-0.00000007,-0.00000082
 ,-0.00000011,-0.00000022,0.00000038,-0.00000002,-0.00000013,-0.0000001
 3,-0.00000001,-0.00000013,0.00000009,-0.00000056,0.00000023,-0.0000005
 2,0.00000051,0.00000084,-0.00000120,0.00001635,0.00005341,0.00004598,0
 .00034042,-0.00001558,0.00007128,-0.00025377,-0.00006452,0.00018305,-0
 .00030587,0.00107013,-0.00367405,-0.00001181,0.00109635,-0.00391113,-0
 .00215050,0.00646504,0.02635976\\0.00001204,-0.00000552,-0.00000093,0.
 00000238,-0.00000514,0.00000197,0.00000814,-0.00000590,0.00000159,0.00
 001308,-0.00000092,-0.00000597,0.00000648,0.00000190,0.00000517,-0.000
 02106,-0.00000048,0.00000055,-0.00001905,-0.00000207,-0.00000280,0.000
 00211,0.00001459,-0.00000098,0.00000118,0.00001297,-0.00001929,0.00000
 534,-0.00001394,0.00001600,0.00000203,0.00000667,0.00000198,-0.0000006
 9,-0.00001305,-0.00000134,0.00000276,0.00000205,-0.00000057,0.00000280
 ,-0.00000231,-0.00000012,0.00000127,-0.00000280,-0.00000135,0.00000048
 ,0.00000221,0.00000049,-0.00000028,0.00000361,-0.00000015,-0.00000079,
 -0.00000194,0.00000235,-0.00000833,0.00000041,-0.00000242,0.00000397,0
 .00000083,0.00000025,0.00000232,0.00000103,0.00000102,-0.00000043,0.00
 000156,0.00000224,0.00000181,-0.00000282,0.00000533,-0.00000082,-0.000
 00886,0.00000168,-0.00000399,-0.00000636,0.00000432,-0.00000386,0.0000
 0840,-0.00000148,-0.00000463,0.00000696,-0.00000370,0.00000102,0.00000
 281,-0.00000488,0.00000623,0.00000140,-0.00000002,-0.00000801,0.000000
 12,0.00000013,-0.00000093,0.00000004,-0.00000038,-0.00000193,0.0000028
 1,0.00000170,-0.00000023,-0.00000036,-0.00000081,-0.00000041,0.0000021
 3,0.00000044\\\@
 The archive entry for this job was punched.


 EVANS BOLDLY PUT 50 ATM. OF ETHYLENE IN A CELL WITH 25 ATM. OF OXYGEN.
 THE APPARATUS SUBSEQUENTLY BLEW UP, BUT LUCKILY NOT BEFORE HE
 OBTAINED THE SPECTRA SHOWN IN FIGURE 8.
 A.J.MERER AND R.S.MULLIKEN, CHEM.REV. 69, 645 (1969)
 Job cpu time:       0 days  8 hours 20 minutes  0.0 seconds.
 Elapsed time:       0 days  0 hours 19 minutes 40.4 seconds.
 File lengths (MBytes):  RWF=    731 Int=      0 D2E=      0 Chk=     21 Scr=      1
 Normal termination of Gaussian 16 at Wed Dec  6 17:21:26 2023.
