 Entering Gaussian System, Link 0=g16
 Input=/home/exlonk/in_progress/3550.inp
 Output=/home/exlonk/in_progress/3550.log
 Initial command:
 /opt/gaussian/g16-c01/g16/l1.exe "/lustre/tmp/slurm/2183147/Gau-1329160.inp" -scrdir="/lustre/tmp/slurm/2183147/"
 Default CPUs for threads: 0-3,7-9,13-15,19-20,24-27,31-32,36-38,41-45
 Default is to use a total of  26 processors:
                               26 via shared-memory
                                1 via Linda
 Entering Link 1 = /opt/gaussian/g16-c01/g16/l1.exe PID=   1329161.
  
 Copyright (c) 1988-2019, Gaussian, Inc.  All Rights Reserved.
  
 This is part of the Gaussian(R) 16 program.  It is based on
 the Gaussian(R) 09 system (copyright 2009, Gaussian, Inc.),
 the Gaussian(R) 03 system (copyright 2003, Gaussian, Inc.),
 the Gaussian(R) 98 system (copyright 1998, Gaussian, Inc.),
 the Gaussian(R) 94 system (copyright 1995, Gaussian, Inc.),
 the Gaussian 92(TM) system (copyright 1992, Gaussian, Inc.),
 the Gaussian 90(TM) system (copyright 1990, Gaussian, Inc.),
 the Gaussian 88(TM) system (copyright 1988, Gaussian, Inc.),
 the Gaussian 86(TM) system (copyright 1986, Carnegie Mellon
 University), and the Gaussian 82(TM) system (copyright 1983,
 Carnegie Mellon University). Gaussian is a federally registered
 trademark of Gaussian, Inc.
  
 This software contains proprietary and confidential information,
 including trade secrets, belonging to Gaussian, Inc.
  
 This software is provided under written license and may be
 used, copied, transmitted, or stored only in accord with that
 written license.
  
 The following legend is applicable only to US Government
 contracts under FAR:
  
                    RESTRICTED RIGHTS LEGEND
  
 Use, reproduction and disclosure by the US Government is
 subject to restrictions as set forth in subparagraphs (a)
 and (c) of the Commercial Computer Software - Restricted
 Rights clause in FAR 52.227-19.
  
 Gaussian, Inc.
 340 Quinnipiac St., Bldg. 40, Wallingford CT 06492
  
  
 ---------------------------------------------------------------
 Warning -- This program may not be used in any manner that
 competes with the business of Gaussian, Inc. or will provide
 assistance to any competitor of Gaussian, Inc.  The licensee
 of this program is prohibited from giving any competitor of
 Gaussian, Inc. access to this program.  By using this program,
 the user acknowledges that Gaussian, Inc. is engaged in the
 business of creating and licensing software in the field of
 computational chemistry and represents and warrants to the
 licensee that it is not a competitor of Gaussian, Inc. and that
 it will not use this program in any manner prohibited above.
 ---------------------------------------------------------------
  

 Cite this work as:
 Gaussian 16, Revision C.01,
 M. J. Frisch, G. W. Trucks, H. B. Schlegel, G. E. Scuseria, 
 M. A. Robb, J. R. Cheeseman, G. Scalmani, V. Barone, 
 G. A. Petersson, H. Nakatsuji, X. Li, M. Caricato, A. V. Marenich, 
 J. Bloino, B. G. Janesko, R. Gomperts, B. Mennucci, H. P. Hratchian, 
 J. V. Ortiz, A. F. Izmaylov, J. L. Sonnenberg, D. Williams-Young, 
 F. Ding, F. Lipparini, F. Egidi, J. Goings, B. Peng, A. Petrone, 
 T. Henderson, D. Ranasinghe, V. G. Zakrzewski, J. Gao, N. Rega, 
 G. Zheng, W. Liang, M. Hada, M. Ehara, K. Toyota, R. Fukuda, 
 J. Hasegawa, M. Ishida, T. Nakajima, Y. Honda, O. Kitao, H. Nakai, 
 T. Vreven, K. Throssell, J. A. Montgomery, Jr., J. E. Peralta, 
 F. Ogliaro, M. J. Bearpark, J. J. Heyd, E. N. Brothers, K. N. Kudin, 
 V. N. Staroverov, T. A. Keith, R. Kobayashi, J. Normand, 
 K. Raghavachari, A. P. Rendell, J. C. Burant, S. S. Iyengar, 
 J. Tomasi, M. Cossi, J. M. Millam, M. Klene, C. Adamo, R. Cammi, 
 J. W. Ochterski, R. L. Martin, K. Morokuma, O. Farkas, 
 J. B. Foresman, and D. J. Fox, Gaussian, Inc., Wallingford CT, 2019.
 
 ******************************************
 Gaussian 16:  EM64L-G16RevC.01  3-Jul-2019
                 6-Dec-2023 
 ******************************************
 %nproc=26
 Will use up to   26 processors via shared memory.
 %mem=16GB
 %chk=/home/exlonk/in_progress/3550.chk
 ------------------------------
 #p MN15/6-311++G(d,p) opt freq
 ------------------------------
 1/18=20,19=15,26=3,38=1/1,3;
 2/9=110,12=2,17=6,18=5,40=1/2;
 3/5=4,6=6,7=1111,11=2,25=1,30=1,71=1,74=-73/1,2,3;
 4//1;
 5/5=2,38=5/2;
 6/7=2,8=2,9=2,10=2,28=1/1;
 7//1,2,3,16;
 1/18=20,19=15,26=3/3(2);
 2/9=110/2;
 99//99;
 2/9=110/2;
 3/5=4,6=6,7=1111,11=2,25=1,30=1,71=1,74=-73/1,2,3;
 4/5=5,16=3,69=1/1;
 5/5=2,38=5/2;
 7//1,2,3,16;
 1/18=20,19=15,26=3/3(-5);
 2/9=110/2;
 6/7=2,8=2,9=2,10=2,19=2,28=1/1;
 99/9=1/99;
 Leave Link    1 at Wed Dec  6 05:34:21 2023, MaxMem=  2147483648 cpu:               8.1 elap:               0.3
 (Enter /opt/gaussian/g16-c01/g16/l101.exe)
 ---------------
 name file: 3550
 ---------------
 Symbolic Z-matrix:
 Charge =  0 Multiplicity = 1
 N                     0.0006    2.2356    0. 
 C                     0.        0.8118    0. 
 C                    -1.2254    0.1247   -0.0002 
 C                     1.2248    0.1235    0.0002 
 C                    -1.2262   -1.2874   -0.0001 
 C                     1.224    -1.2887    0.0001 
 C                    -0.0014   -1.9757    0. 
 C                    -2.4505    0.8122   -0.0005 
 C                     2.4505    0.8097    0.0004 
 C                    -2.452    -1.9737   -0.0002 
 C                     2.4491   -1.9763    0.0001 
 C                     0.0087    2.9563   -1.2498 
 C                     0.0008    2.956     1.2499 
 C                    -3.6591    0.1155   -0.0005 
 C                     3.6583    0.1117    0.0005 
 C                    -3.6598   -1.2757   -0.0003 
 C                     3.6576   -1.2795    0.0004 
 H                    -0.002    -3.0658    0. 
 H                    -2.5047    1.8978    0.0031 
 H                     2.5062    1.8951   -0.0032 
 H                    -2.4763   -3.0615    0. 
 H                     2.4723   -3.0641    0. 
 H                     0.3036    4.0016   -1.1074 
 H                    -0.9852    2.9484   -1.7084 
 H                     0.716     2.5153   -1.9608 
 H                    -0.3777    3.9759    1.1221 
 H                     1.0143    3.0222    1.6581 
 H                    -0.6361    2.467     1.9954 
 H                    -4.5993    0.6593    0.0001 
 H                     4.5991    0.6545   -0.0002 
 H                    -4.6003   -1.8188   -0.0001 
 H                     4.5976   -1.8236    0.0003 
 
 ITRead=  0  0  0  0  0  0  0  0  0  0  0  0  0  0  0  0  0  0  0  0
 ITRead=  0  0  0  0  0  0  0  0  0  0  0  0
 MicOpt= -1 -1 -1 -1 -1 -1 -1 -1 -1 -1 -1 -1 -1 -1 -1 -1 -1 -1 -1 -1
 MicOpt= -1 -1 -1 -1 -1 -1 -1 -1 -1 -1 -1 -1
 NAtoms=     32 NQM=       32 NQMF=       0 NMMI=      0 NMMIF=      0
                NMic=       0 NMicF=      0.
                    Isotopes and Nuclear Properties:
 (Nuclear quadrupole moments (NQMom) in fm**2, nuclear magnetic moments (NMagM)
  in nuclear magnetons)

  Atom         1           2           3           4           5           6           7           8           9          10
 IAtWgt=          14          12          12          12          12          12          12          12          12          12
 AtmWgt=  14.0030740  12.0000000  12.0000000  12.0000000  12.0000000  12.0000000  12.0000000  12.0000000  12.0000000  12.0000000
 NucSpn=           2           0           0           0           0           0           0           0           0           0
 AtZEff=  -0.0000000  -0.0000000  -0.0000000  -0.0000000  -0.0000000  -0.0000000  -0.0000000  -0.0000000  -0.0000000  -0.0000000
 NQMom=    2.0440000   0.0000000   0.0000000   0.0000000   0.0000000   0.0000000   0.0000000   0.0000000   0.0000000   0.0000000
 NMagM=    0.4037610   0.0000000   0.0000000   0.0000000   0.0000000   0.0000000   0.0000000   0.0000000   0.0000000   0.0000000
 AtZNuc=   7.0000000   6.0000000   6.0000000   6.0000000   6.0000000   6.0000000   6.0000000   6.0000000   6.0000000   6.0000000

  Atom        11          12          13          14          15          16          17          18          19          20
 IAtWgt=          12          12          12          12          12          12          12           1           1           1
 AtmWgt=  12.0000000  12.0000000  12.0000000  12.0000000  12.0000000  12.0000000  12.0000000   1.0078250   1.0078250   1.0078250
 NucSpn=           0           0           0           0           0           0           0           1           1           1
 AtZEff=  -0.0000000  -0.0000000  -0.0000000  -0.0000000  -0.0000000  -0.0000000  -0.0000000  -0.0000000  -0.0000000  -0.0000000
 NQMom=    0.0000000   0.0000000   0.0000000   0.0000000   0.0000000   0.0000000   0.0000000   0.0000000   0.0000000   0.0000000
 NMagM=    0.0000000   0.0000000   0.0000000   0.0000000   0.0000000   0.0000000   0.0000000   2.7928460   2.7928460   2.7928460
 AtZNuc=   6.0000000   6.0000000   6.0000000   6.0000000   6.0000000   6.0000000   6.0000000   1.0000000   1.0000000   1.0000000

  Atom        21          22          23          24          25          26          27          28          29          30
 IAtWgt=           1           1           1           1           1           1           1           1           1           1
 AtmWgt=   1.0078250   1.0078250   1.0078250   1.0078250   1.0078250   1.0078250   1.0078250   1.0078250   1.0078250   1.0078250
 NucSpn=           1           1           1           1           1           1           1           1           1           1
 AtZEff=  -0.0000000  -0.0000000  -0.0000000  -0.0000000  -0.0000000  -0.0000000  -0.0000000  -0.0000000  -0.0000000  -0.0000000
 NQMom=    0.0000000   0.0000000   0.0000000   0.0000000   0.0000000   0.0000000   0.0000000   0.0000000   0.0000000   0.0000000
 NMagM=    2.7928460   2.7928460   2.7928460   2.7928460   2.7928460   2.7928460   2.7928460   2.7928460   2.7928460   2.7928460
 AtZNuc=   1.0000000   1.0000000   1.0000000   1.0000000   1.0000000   1.0000000   1.0000000   1.0000000   1.0000000   1.0000000

  Atom        31          32
 IAtWgt=           1           1
 AtmWgt=   1.0078250   1.0078250
 NucSpn=           1           1
 AtZEff=  -0.0000000  -0.0000000
 NQMom=    0.0000000   0.0000000
 NMagM=    2.7928460   2.7928460
 AtZNuc=   1.0000000   1.0000000
 Leave Link  101 at Wed Dec  6 05:34:22 2023, MaxMem=  2147483648 cpu:               8.9 elap:               0.4
 (Enter /opt/gaussian/g16-c01/g16/l103.exe)

 GradGradGradGradGradGradGradGradGradGradGradGradGradGradGradGradGradGrad
 Berny optimization.
 Initialization pass.
                           ----------------------------
                           !    Initial Parameters    !
                           ! (Angstroms and Degrees)  !
 --------------------------                            --------------------------
 ! Name  Definition              Value          Derivative Info.                !
 --------------------------------------------------------------------------------
 ! R1    R(1,2)                  1.4238         estimate D2E/DX2                !
 ! R2    R(1,12)                 1.4427         estimate D2E/DX2                !
 ! R3    R(1,13)                 1.4426         estimate D2E/DX2                !
 ! R4    R(2,3)                  1.4049         estimate D2E/DX2                !
 ! R5    R(2,4)                  1.405          estimate D2E/DX2                !
 ! R6    R(3,5)                  1.4121         estimate D2E/DX2                !
 ! R7    R(3,8)                  1.4048         estimate D2E/DX2                !
 ! R8    R(4,6)                  1.4122         estimate D2E/DX2                !
 ! R9    R(4,9)                  1.4047         estimate D2E/DX2                !
 ! R10   R(5,7)                  1.405          estimate D2E/DX2                !
 ! R11   R(5,10)                 1.4048         estimate D2E/DX2                !
 ! R12   R(6,7)                  1.4048         estimate D2E/DX2                !
 ! R13   R(6,11)                 1.4049         estimate D2E/DX2                !
 ! R14   R(7,18)                 1.0901         estimate D2E/DX2                !
 ! R15   R(8,14)                 1.395          estimate D2E/DX2                !
 ! R16   R(8,19)                 1.087          estimate D2E/DX2                !
 ! R17   R(9,15)                 1.395          estimate D2E/DX2                !
 ! R18   R(9,20)                 1.0868         estimate D2E/DX2                !
 ! R19   R(10,16)                1.395          estimate D2E/DX2                !
 ! R20   R(10,21)                1.0881         estimate D2E/DX2                !
 ! R21   R(11,17)                1.395          estimate D2E/DX2                !
 ! R22   R(11,22)                1.088          estimate D2E/DX2                !
 ! R23   R(12,23)                1.0954         estimate D2E/DX2                !
 ! R24   R(12,24)                1.0946         estimate D2E/DX2                !
 ! R25   R(12,25)                1.0956         estimate D2E/DX2                !
 ! R26   R(13,26)                1.0953         estimate D2E/DX2                !
 ! R27   R(13,27)                1.0946         estimate D2E/DX2                !
 ! R28   R(13,28)                1.0957         estimate D2E/DX2                !
 ! R29   R(14,16)                1.3912         estimate D2E/DX2                !
 ! R30   R(14,29)                1.0861         estimate D2E/DX2                !
 ! R31   R(15,17)                1.3912         estimate D2E/DX2                !
 ! R32   R(15,30)                1.0862         estimate D2E/DX2                !
 ! R33   R(16,31)                1.086          estimate D2E/DX2                !
 ! R34   R(17,32)                1.0861         estimate D2E/DX2                !
 ! A1    A(2,1,12)             119.9696         estimate D2E/DX2                !
 ! A2    A(2,1,13)             119.9577         estimate D2E/DX2                !
 ! A3    A(12,1,13)            120.0717         estimate D2E/DX2                !
 ! A4    A(1,2,3)              119.3041         estimate D2E/DX2                !
 ! A5    A(1,2,4)              119.3105         estimate D2E/DX2                !
 ! A6    A(3,2,4)              121.3854         estimate D2E/DX2                !
 ! A7    A(2,3,5)              119.3125         estimate D2E/DX2                !
 ! A8    A(2,3,8)              121.4198         estimate D2E/DX2                !
 ! A9    A(5,3,8)              119.2678         estimate D2E/DX2                !
 ! A10   A(2,4,6)              119.3022         estimate D2E/DX2                !
 ! A11   A(2,4,9)              121.4234         estimate D2E/DX2                !
 ! A12   A(6,4,9)              119.2745         estimate D2E/DX2                !
 ! A13   A(3,5,7)              119.3022         estimate D2E/DX2                !
 ! A14   A(3,5,10)             119.276          estimate D2E/DX2                !
 ! A15   A(7,5,10)             121.4218         estimate D2E/DX2                !
 ! A16   A(4,6,7)              119.3089         estimate D2E/DX2                !
 ! A17   A(4,6,11)             119.2713         estimate D2E/DX2                !
 ! A18   A(7,6,11)             121.4198         estimate D2E/DX2                !
 ! A19   A(5,7,6)              121.3889         estimate D2E/DX2                !
 ! A20   A(5,7,18)             119.3031         estimate D2E/DX2                !
 ! A21   A(6,7,18)             119.308          estimate D2E/DX2                !
 ! A22   A(3,8,14)             120.7384         estimate D2E/DX2                !
 ! A23   A(3,8,19)             122.1582         estimate D2E/DX2                !
 ! A24   A(14,8,19)            117.103          estimate D2E/DX2                !
 ! A25   A(4,9,15)             120.7339         estimate D2E/DX2                !
 ! A26   A(4,9,20)             122.1795         estimate D2E/DX2                !
 ! A27   A(15,9,20)            117.0862         estimate D2E/DX2                !
 ! A28   A(5,10,16)            120.7324         estimate D2E/DX2                !
 ! A29   A(5,10,21)            120.5233         estimate D2E/DX2                !
 ! A30   A(16,10,21)           118.7444         estimate D2E/DX2                !
 ! A31   A(6,11,17)            120.7292         estimate D2E/DX2                !
 ! A32   A(6,11,22)            120.5256         estimate D2E/DX2                !
 ! A33   A(17,11,22)           118.7452         estimate D2E/DX2                !
 ! A34   A(1,12,23)            111.4439         estimate D2E/DX2                !
 ! A35   A(1,12,24)            110.746          estimate D2E/DX2                !
 ! A36   A(1,12,25)            111.3914         estimate D2E/DX2                !
 ! A37   A(23,12,24)           107.8059         estimate D2E/DX2                !
 ! A38   A(23,12,25)           107.1383         estimate D2E/DX2                !
 ! A39   A(24,12,25)           108.1432         estimate D2E/DX2                !
 ! A40   A(1,13,26)            111.3355         estimate D2E/DX2                !
 ! A41   A(1,13,27)            110.6966         estimate D2E/DX2                !
 ! A42   A(1,13,28)            111.5028         estimate D2E/DX2                !
 ! A43   A(26,13,27)           107.8871         estimate D2E/DX2                !
 ! A44   A(26,13,28)           107.1022         estimate D2E/DX2                !
 ! A45   A(27,13,28)           108.1474         estimate D2E/DX2                !
 ! A46   A(8,14,16)            119.9902         estimate D2E/DX2                !
 ! A47   A(8,14,29)            119.9941         estimate D2E/DX2                !
 ! A48   A(16,14,29)           120.0157         estimate D2E/DX2                !
 ! A49   A(9,15,17)            119.9952         estimate D2E/DX2                !
 ! A50   A(9,15,30)            119.9929         estimate D2E/DX2                !
 ! A51   A(17,15,30)           120.0119         estimate D2E/DX2                !
 ! A52   A(10,16,14)           119.9952         estimate D2E/DX2                !
 ! A53   A(10,16,31)           119.9713         estimate D2E/DX2                !
 ! A54   A(14,16,31)           120.0335         estimate D2E/DX2                !
 ! A55   A(11,17,15)           119.9958         estimate D2E/DX2                !
 ! A56   A(11,17,32)           119.9695         estimate D2E/DX2                !
 ! A57   A(15,17,32)           120.0347         estimate D2E/DX2                !
 ! D1    D(12,1,2,3)           -90.3481         estimate D2E/DX2                !
 ! D2    D(12,1,2,4)            89.6519         estimate D2E/DX2                !
 ! D3    D(13,1,2,3)            90.0046         estimate D2E/DX2                !
 ! D4    D(13,1,2,4)           -89.9954         estimate D2E/DX2                !
 ! D5    D(2,1,12,23)         -163.1616         estimate D2E/DX2                !
 ! D6    D(2,1,12,24)           76.8321         estimate D2E/DX2                !
 ! D7    D(2,1,12,25)          -43.5657         estimate D2E/DX2                !
 ! D8    D(13,1,12,23)          16.4853         estimate D2E/DX2                !
 ! D9    D(13,1,12,24)        -103.521          estimate D2E/DX2                !
 ! D10   D(13,1,12,25)         136.0812         estimate D2E/DX2                !
 ! D11   D(2,1,13,26)         -158.1975         estimate D2E/DX2                !
 ! D12   D(2,1,13,27)           81.7987         estimate D2E/DX2                !
 ! D13   D(2,1,13,28)          -38.6455         estimate D2E/DX2                !
 ! D14   D(12,1,13,26)          22.1555         estimate D2E/DX2                !
 ! D15   D(12,1,13,27)         -97.8483         estimate D2E/DX2                !
 ! D16   D(12,1,13,28)         141.7076         estimate D2E/DX2                !
 ! D17   D(1,2,3,5)           -179.9953         estimate D2E/DX2                !
 ! D18   D(1,2,3,8)              0.0048         estimate D2E/DX2                !
 ! D19   D(4,2,3,5)              0.0047         estimate D2E/DX2                !
 ! D20   D(4,2,3,8)           -179.9952         estimate D2E/DX2                !
 ! D21   D(1,2,4,6)           -179.9953         estimate D2E/DX2                !
 ! D22   D(1,2,4,9)              0.0            estimate D2E/DX2                !
 ! D23   D(3,2,4,6)              0.0047         estimate D2E/DX2                !
 ! D24   D(3,2,4,9)            180.0            estimate D2E/DX2                !
 ! D25   D(2,3,5,7)             -0.0092         estimate D2E/DX2                !
 ! D26   D(2,3,5,10)           179.9953         estimate D2E/DX2                !
 ! D27   D(8,3,5,7)            179.9906         estimate D2E/DX2                !
 ! D28   D(8,3,5,10)            -0.0048         estimate D2E/DX2                !
 ! D29   D(2,3,8,14)          -179.9906         estimate D2E/DX2                !
 ! D30   D(2,3,8,19)            -0.2298         estimate D2E/DX2                !
 ! D31   D(5,3,8,14)             0.0095         estimate D2E/DX2                !
 ! D32   D(5,3,8,19)           179.7704         estimate D2E/DX2                !
 ! D33   D(2,4,6,7)             -0.0092         estimate D2E/DX2                !
 ! D34   D(2,4,6,11)           179.9906         estimate D2E/DX2                !
 ! D35   D(9,4,6,7)            179.9953         estimate D2E/DX2                !
 ! D36   D(9,4,6,11)            -0.0048         estimate D2E/DX2                !
 ! D37   D(2,4,9,15)          -179.9954         estimate D2E/DX2                !
 ! D38   D(2,4,9,20)            -0.2248         estimate D2E/DX2                !
 ! D39   D(6,4,9,15)             0.0            estimate D2E/DX2                !
 ! D40   D(6,4,9,20)           179.7706         estimate D2E/DX2                !
 ! D41   D(3,5,7,6)              0.0047         estimate D2E/DX2                !
 ! D42   D(3,5,7,18)          -179.9953         estimate D2E/DX2                !
 ! D43   D(10,5,7,6)          -180.0            estimate D2E/DX2                !
 ! D44   D(10,5,7,18)            0.0            estimate D2E/DX2                !
 ! D45   D(3,5,10,16)           -0.0046         estimate D2E/DX2                !
 ! D46   D(3,5,10,21)         -179.9923         estimate D2E/DX2                !
 ! D47   D(7,5,10,16)         -179.9999         estimate D2E/DX2                !
 ! D48   D(7,5,10,21)            0.0123         estimate D2E/DX2                !
 ! D49   D(4,6,7,5)              0.0047         estimate D2E/DX2                !
 ! D50   D(4,6,7,18)          -179.9953         estimate D2E/DX2                !
 ! D51   D(11,6,7,5)          -179.9952         estimate D2E/DX2                !
 ! D52   D(11,6,7,18)            0.0048         estimate D2E/DX2                !
 ! D53   D(4,6,11,17)            0.0097         estimate D2E/DX2                !
 ! D54   D(4,6,11,22)         -179.9985         estimate D2E/DX2                !
 ! D55   D(7,6,11,17)         -179.9904         estimate D2E/DX2                !
 ! D56   D(7,6,11,22)            0.0013         estimate D2E/DX2                !
 ! D57   D(3,8,14,16)           -0.0047         estimate D2E/DX2                !
 ! D58   D(3,8,14,29)          179.9492         estimate D2E/DX2                !
 ! D59   D(19,8,14,16)        -179.7773         estimate D2E/DX2                !
 ! D60   D(19,8,14,29)           0.1766         estimate D2E/DX2                !
 ! D61   D(4,9,15,17)            0.0001         estimate D2E/DX2                !
 ! D62   D(4,9,15,30)          179.9479         estimate D2E/DX2                !
 ! D63   D(20,9,15,17)        -179.7818         estimate D2E/DX2                !
 ! D64   D(20,9,15,30)           0.1661         estimate D2E/DX2                !
 ! D65   D(5,10,16,14)           0.0094         estimate D2E/DX2                !
 ! D66   D(5,10,16,31)        -179.9831         estimate D2E/DX2                !
 ! D67   D(21,10,16,14)        179.9974         estimate D2E/DX2                !
 ! D68   D(21,10,16,31)          0.0048         estimate D2E/DX2                !
 ! D69   D(6,11,17,15)          -0.0097         estimate D2E/DX2                !
 ! D70   D(6,11,17,32)        -179.9941         estimate D2E/DX2                !
 ! D71   D(22,11,17,15)        179.9984         estimate D2E/DX2                !
 ! D72   D(22,11,17,32)          0.0139         estimate D2E/DX2                !
 ! D73   D(8,14,16,10)          -0.0048         estimate D2E/DX2                !
 ! D74   D(8,14,16,31)         179.9878         estimate D2E/DX2                !
 ! D75   D(29,14,16,10)       -179.9587         estimate D2E/DX2                !
 ! D76   D(29,14,16,31)          0.0339         estimate D2E/DX2                !
 ! D77   D(9,15,17,11)           0.0047         estimate D2E/DX2                !
 ! D78   D(9,15,17,32)         179.9892         estimate D2E/DX2                !
 ! D79   D(30,15,17,11)       -179.9431         estimate D2E/DX2                !
 ! D80   D(30,15,17,32)          0.0413         estimate D2E/DX2                !
 --------------------------------------------------------------------------------
 Trust Radius=3.00D-01 FncErr=1.00D-07 GrdErr=1.00D-06 EigMax=2.50D+02 EigMin=1.00D-04
 Number of steps in this run=    181 maximum allowed number of steps=    192.
 GradGradGradGradGradGradGradGradGradGradGradGradGradGradGradGradGradGrad

 Leave Link  103 at Wed Dec  6 05:34:22 2023, MaxMem=  2147483648 cpu:               1.6 elap:               0.1
 (Enter /opt/gaussian/g16-c01/g16/l202.exe)
                          Input orientation:                          
 ---------------------------------------------------------------------
 Center     Atomic      Atomic             Coordinates (Angstroms)
 Number     Number       Type             X           Y           Z
 ---------------------------------------------------------------------
      1          7           0        0.000600    2.235600    0.000000
      2          6           0        0.000000    0.811800    0.000000
      3          6           0       -1.225400    0.124700   -0.000200
      4          6           0        1.224800    0.123500    0.000200
      5          6           0       -1.226200   -1.287400   -0.000100
      6          6           0        1.224000   -1.288700    0.000100
      7          6           0       -0.001400   -1.975700    0.000000
      8          6           0       -2.450500    0.812200   -0.000500
      9          6           0        2.450500    0.809700    0.000400
     10          6           0       -2.452000   -1.973700   -0.000200
     11          6           0        2.449100   -1.976300    0.000100
     12          6           0        0.008700    2.956300   -1.249800
     13          6           0        0.000800    2.956000    1.249900
     14          6           0       -3.659100    0.115500   -0.000500
     15          6           0        3.658300    0.111700    0.000500
     16          6           0       -3.659800   -1.275700   -0.000300
     17          6           0        3.657600   -1.279500    0.000400
     18          1           0       -0.002000   -3.065800    0.000000
     19          1           0       -2.504700    1.897800    0.003100
     20          1           0        2.506200    1.895100   -0.003200
     21          1           0       -2.476300   -3.061500    0.000000
     22          1           0        2.472300   -3.064100    0.000000
     23          1           0        0.303600    4.001600   -1.107400
     24          1           0       -0.985200    2.948400   -1.708400
     25          1           0        0.716000    2.515300   -1.960800
     26          1           0       -0.377700    3.975900    1.122100
     27          1           0        1.014300    3.022200    1.658100
     28          1           0       -0.636100    2.467000    1.995400
     29          1           0       -4.599300    0.659300    0.000100
     30          1           0        4.599100    0.654500   -0.000200
     31          1           0       -4.600300   -1.818800   -0.000100
     32          1           0        4.597600   -1.823600    0.000300
 ---------------------------------------------------------------------
                    Distance matrix (angstroms):
                    1          2          3          4          5
     1  N    0.000000
     2  C    1.423800   0.000000
     3  C    2.441101   1.404888   0.000000
     4  C    2.441236   1.404953   2.450200   0.000000
     5  C    3.730492   2.431092   1.412100   2.828081   0.000000
     6  C    3.730603   2.431106   2.827943   1.412200   2.450200
     7  C    4.211300   2.787500   2.431020   2.431092   1.404953
     8  C    2.834424   2.450500   1.404823   3.739270   2.430480
     9  C    2.834643   2.450501   3.739180   1.404710   4.232724
    10  C    4.871699   3.710972   2.430603   4.232860   1.404846
    11  C    4.871884   3.711010   4.232747   2.430652   3.739307
    12  C    1.442731   2.482127   3.332036   3.326583   4.593007
    13  C    1.442646   2.481903   3.329050   3.329111   4.590694
    14  C    4.229448   3.724761   2.433717   4.883907   2.808404
    15  C    4.229624   3.724688   4.883717   2.433529   5.080927
    16  C    5.072254   4.213288   2.808456   5.081051   2.433628
    17  C    5.072433   4.213262   5.080892   2.808367   4.883806
    18  H    5.301401   3.877601   3.417016   3.417115   2.159021
    19  H    2.527973   2.730005   2.186436   4.130051   3.432211
    20  H    2.528632   2.730309   4.130274   2.186450   4.905010
    21  H    5.847589   4.597229   3.422955   4.882865   2.170295
    22  H    5.847745   4.597267   4.882769   3.423018   4.103117
    23  H    2.106395   3.390182   4.312086   4.137034   5.616042
    24  H    2.097264   2.907629   3.308916   3.972842   4.573661
    25  H    2.105888   2.694310   3.650747   3.134502   4.698618
    26  H    2.104962   3.378357   4.099987   4.320608   5.448083
    27  H    2.096574   2.943462   4.020164   3.345953   5.132457
    28  H    2.107262   2.669444   3.133060   3.596632   4.292523
    29  H    4.862489   4.601828   3.415992   5.848694   3.894540
    30  H    4.862723   4.601789   5.848546   3.415825   6.140448
    31  H    6.132409   5.299322   3.894502   6.140384   3.415690
    32  H    6.132660   5.299364   6.140293   3.894480   5.848432
                    6          7          8          9         10
     6  C    0.000000
     7  C    1.404840   0.000000
     8  C    4.232698   3.710859   0.000000
     9  C    2.430552   3.710831   4.901001   0.000000
    10  C    3.739278   2.450601   2.785900   5.637537   0.000000
    11  C    1.404871   2.450500   5.637536   2.786000   4.901101
    12  C    4.589034   5.087900   3.493649   3.483286   5.649907
    13  C    4.590827   5.087624   3.488302   3.488393   5.646319
    14  C    5.080988   4.213299   1.395029   6.148913   2.412850
    15  C    2.808369   4.213151   6.148832   1.394986   6.456366
    16  C    4.883817   3.724767   2.412827   6.456366   1.394986
    17  C    2.433617   3.724644   6.456322   2.412850   6.148913
    18  H    2.158972   1.090100   4.586288   4.586312   2.682384
    19  H    4.904793   4.611998   1.086958   5.073261   3.871860
    20  H    3.432292   4.612067   5.073614   1.086834   6.288988
    21  H    4.103053   2.702608   3.873786   6.265744   1.088071
    22  H    2.170322   2.702556   6.265753   3.873861   5.043580
    23  H    5.482788   6.086664   4.356899   4.003077   6.672588
    24  H    5.074697   5.304079   3.102801   4.392957   5.412626
    25  H    4.309711   4.952624   4.095125   3.124719   5.833635
    26  H    5.616079   6.068134   3.945343   4.391099   6.400001
    27  H    4.623505   5.362830   4.431692   3.115413   6.302715
    28  H    4.641818   4.911420   3.164495   4.031596   5.196126
    29  H    6.140483   5.299425   2.154233   7.051404   3.397585
    30  H    3.894525   5.299297   7.051364   2.154198   7.524988
    31  H    5.848374   4.601576   3.397617   7.524812   2.153877
    32  H    3.415742   4.601514   7.524836   3.397691   7.051198
                   11         12         13         14         15
    11  C    0.000000
    12  C    5.643434   0.000000
    13  C    5.646570   2.499713   0.000000
    14  C    6.456449   4.804545   4.798626   0.000000
    15  C    2.412863   4.793181   4.798786   7.317401   0.000000
    16  C    6.148943   5.738377   5.733261   1.391200   7.448454
    17  C    1.394992   5.728828   5.733489   7.448498   1.391200
    18  H    2.682331   6.150431   6.150149   4.847169   4.847092
    19  H    6.288783   3.001226   2.991961   2.123498   6.416598
    20  H    3.871822   2.986246   2.995463   6.417001   2.123173
    21  H    5.043533   6.629566   6.626355   3.390036   6.906701
    22  H    1.088047   6.623937   6.626626   6.906803   3.390030
    23  H    6.447094   1.095398   2.596504   5.659505   5.254786
    24  H    6.242280   1.094629   3.118300   4.253468   5.703446
    25  H    5.198388   1.095571   3.318783   5.361279   4.275643
    26  H    6.684188   2.610517   1.095350   5.189461   5.699063
    27  H    5.458261   3.077573   1.094620   5.748089   4.267245
    28  H    5.765639   3.344623   1.095688   4.318761   5.288566
    29  H    7.525047   5.298313   5.291290   1.086138   8.275737
    30  H    3.397589   5.285031   5.291882   8.275771   1.086157
    31  H    7.051159   6.753237   6.747691   2.151133   8.481232
    32  H    2.153920   6.743011   6.748085   8.481344   2.151202
                   16         17         18         19         20
    16  C    0.000000
    17  C    7.317401   0.000000
    18  H    4.072341   4.072289   0.000000
    19  H    3.377184   6.933194   5.558853   0.000000
    20  H    6.933508   3.376954   5.558921   5.010905   0.000000
    21  H    2.142371   6.387508   2.474304   4.959382   7.028030
    22  H    6.387568   2.142366   2.474301   7.027872   4.959317
    23  H    6.692093   6.353468   7.160158   3.680453   3.241612
    24  H    5.283381   6.507744   6.328974   2.518308   4.025795
    25  H    6.112517   5.186504   5.958938   3.822449   2.724273
    26  H    6.293748   6.720200   7.140434   3.177230   3.730001
    27  H    6.562732   5.314097   6.391080   4.048044   2.501207
    28  H    5.208971   6.037561   5.915706   2.790146   3.767694
    29  H    2.151020   8.481471   5.917055   2.433360   7.212166
    30  H    8.481456   2.150995   5.916989   7.211781   2.432967
    31  H    1.086047   8.275491   4.764386   4.266693   8.018442
    32  H    8.275557   1.086115   4.764387   8.018197   4.266462
                   21         22         23         24         25
    21  H    0.000000
    22  H    4.948601   0.000000
    23  H    7.670825   7.473534   0.000000
    24  H    6.423465   7.143045   1.769587   0.000000
    25  H    6.718349   6.169200   1.762797   1.773517   0.000000
    26  H    7.428878   7.677448   2.331416   3.071896   3.582430
    27  H    7.207287   6.474419   3.018660   3.916219   3.666383
    28  H    6.158918   6.651078   3.586837   3.751233   4.181151
    29  H    4.283863   7.991948   6.036220   4.606590   5.961735
    30  H    7.991867   4.283838   5.557004   6.274100   4.731278
    31  H    2.460829   7.181396   7.690995   6.222012   7.133850
    32  H    7.181397   2.460841   7.321092   7.540510   6.143190
                   26         27         28         29         30
    26  H    0.000000
    27  H    1.770453   0.000000
    28  H    1.762442   1.773651   0.000000
    29  H    5.484581   6.312271   4.791237   0.000000
    30  H    6.087676   4.605079   5.888539   9.198401   0.000000
    31  H    7.257288   7.596620   6.169683   2.478100   9.526079
    32  H    7.723098   6.250609   7.055586   9.526162   2.478101
                   31         32
    31  H    0.000000
    32  H    9.197901   0.000000
 Stoichiometry    C16H15N
 Framework group  C1[X(C16H15N)]
 Deg. of freedom    90
 Full point group                 C1      NOp   1
 Largest Abelian subgroup         C1      NOp   1
 Largest concise Abelian subgroup C1      NOp   1
                         Standard orientation:                         
 ---------------------------------------------------------------------
 Center     Atomic      Atomic             Coordinates (Angstroms)
 Number     Number       Type             X           Y           Z
 ---------------------------------------------------------------------
      1          7           0        0.000980    2.121711    0.000008
      2          6           0       -0.000035    0.697911    0.000008
      3          6           0       -1.225635    0.011168   -0.000192
      4          6           0        1.224565    0.009254    0.000208
      5          6           0       -1.226847   -1.400931   -0.000092
      6          6           0        1.223353   -1.402946    0.000108
      7          6           0       -0.002247   -2.089588    0.000008
      8          6           0       -2.450534    0.699025   -0.000492
      9          6           0        2.450465    0.695097    0.000408
     10          6           0       -2.452847   -2.086874   -0.000192
     11          6           0        2.448252   -2.090903    0.000108
     12          6           0        0.009290    2.842408   -1.249792
     13          6           0        0.001390    2.842111    1.249908
     14          6           0       -3.659338    0.002678   -0.000492
     15          6           0        3.658061   -0.003255    0.000508
     16          6           0       -3.660443   -1.388522   -0.000292
     17          6           0        3.656956   -1.394455    0.000408
     18          1           0       -0.003165   -3.179688    0.000008
     19          1           0       -2.504418    1.784641    0.003108
     20          1           0        2.506481    1.780480   -0.003192
     21          1           0       -2.477464   -3.174667    0.000008
     22          1           0        2.471135   -3.178710    0.000008
     23          1           0        0.304495    3.887622   -1.107392
     24          1           0       -0.984612    2.834798   -1.708392
     25          1           0        0.716462    2.401202   -1.960792
     26          1           0       -0.376812    3.862121    1.122108
     27          1           0        1.014910    2.908015    1.658108
     28          1           0       -0.635652    2.353296    1.995408
     29          1           0       -4.599379    0.546752    0.000108
     30          1           0        4.599019    0.539270   -0.000192
     31          1           0       -4.601101   -1.931348   -0.000092
     32          1           0        4.596797   -1.938829    0.000308
 ---------------------------------------------------------------------
 Rotational constants (GHZ):           0.7413083           0.4320027           0.2897152
 Leave Link  202 at Wed Dec  6 05:34:22 2023, MaxMem=  2147483648 cpu:               3.7 elap:               0.3
 (Enter /opt/gaussian/g16-c01/g16/l301.exe)
 Standard basis: 6-311++G(d,p) (5D, 7F)
 Ernie: Thresh=  0.10000D-02 Tol=  0.10000D-05 Strict=F.
 There are   496 symmetry adapted cartesian basis functions of A   symmetry.
 There are   479 symmetry adapted basis functions of A   symmetry.
   479 basis functions,   747 primitive gaussians,   496 cartesian basis functions
    59 alpha electrons       59 beta electrons
       nuclear repulsion energy      1134.0627907015 Hartrees.
 IExCor= 7252 DFT=T Ex+Corr=MN15 ExCW=0 ScaHFX=  0.440000
 ScaDFX=  1.000000  1.000000  1.000000  1.000000 ScalE2=  1.000000  1.000000
 IRadAn=      5 IRanWt=     -1 IRanGd=            0 ICorTp=0 IEmpDi=  4
 NAtoms=   32 NActive=   32 NUniq=   32 SFac= 1.00D+00 NAtFMM=   60 NAOKFM=F Big=F
 Integral buffers will be    131072 words long.
 Raffenetti 2 integral format.
 Two-electron integral symmetry is turned on.
 Leave Link  301 at Wed Dec  6 05:34:22 2023, MaxMem=  2147483648 cpu:               2.8 elap:               0.2
 (Enter /opt/gaussian/g16-c01/g16/l302.exe)
 NPDir=0 NMtPBC=     1 NCelOv=     1 NCel=       1 NClECP=     1 NCelD=      1
         NCelK=      1 NCelE2=     1 NClLst=     1 CellRange=     0.0.
 One-electron integrals computed using PRISM.
 One-electron integral symmetry used in STVInt
 NBasis=   479 RedAO= T EigKep=  1.77D-06  NBF=   479
 NBsUse=   471 1.00D-06 EigRej=  6.20D-07 NBFU=   471
 Precomputing XC quadrature grid using
 IXCGrd= 4 IRadAn=           5 IRanWt=          -1 IRanGd=           0 AccXCQ= 0.00D+00.
 Generated NRdTot=       0 NPtTot=           0 NUsed=           0 NTot=          32
 NSgBfM=   496   496   496   496   496 MxSgAt=    32 MxSgA2=    32.
 Leave Link  302 at Wed Dec  6 05:35:18 2023, MaxMem=  2147483648 cpu:            1384.1 elap:              55.5
 (Enter /opt/gaussian/g16-c01/g16/l303.exe)
 DipDrv:  MaxL=1.
 Leave Link  303 at Wed Dec  6 05:35:20 2023, MaxMem=  2147483648 cpu:              51.4 elap:               2.4
 (Enter /opt/gaussian/g16-c01/g16/l401.exe)
 ExpMin= 3.60D-02 ExpMax= 6.29D+03 ExpMxC= 9.49D+02 IAcc=3 IRadAn=         5 AccDes= 0.00D+00
 Harris functional with IExCor= 1009 and IRadAn=       5 diagonalized for initial guess.
 HarFok:  IExCor= 1009 AccDes= 0.00D+00 IRadAn=         5 IDoV= 1 UseB2=F ITyADJ=14
 ICtDFT=  3500011 ScaDFX=  1.000000  1.000000  1.000000  1.000000
 FoFCou: FMM=F IPFlag=           0 FMFlag=      100000 FMFlg1=           0
         NFxFlg=           0 DoJE=T BraDBF=F KetDBF=T FulRan=T
         wScrn=  0.000000 ICntrl=       500 IOpCl=  0 I1Cent=   200000004 NGrid=           0
         NMat0=    1 NMatS0=      1 NMatT0=    0 NMatD0=    1 NMtDS0=    0 NMtDT0=    0
 Petite list used in FoFCou.
 Harris En= -673.049074341064    
 JPrj=0 DoOrth=F DoCkMO=F.
 Leave Link  401 at Wed Dec  6 05:35:51 2023, MaxMem=  2147483648 cpu:             770.5 elap:              31.1
 (Enter /opt/gaussian/g16-c01/g16/l502.exe)
 Integral symmetry usage will be decided dynamically.
 Closed shell SCF:
 Using DIIS extrapolation, IDIIS=  1040.
 NGot=  2147483648 LenX=  2146973194 LenY=  2146726682
 Requested convergence on RMS density matrix=1.00D-08 within 128 cycles.
 Requested convergence on MAX density matrix=1.00D-06.
 Requested convergence on             energy=1.00D-06.
 No special actions if energy rises.
 Fock matrices will be formed incrementally for  20 cycles.

 Cycle   1  Pass 1  IDiag  1:
 FoFJK:  IHMeth= 1 ICntrl=       0 DoSepK=F KAlg= 0 I1Cent=           0 FoldK=F
 IRaf= 880000000 NMat=       1 IRICut=       1 DoRegI=T DoRafI=F ISym2E= 0 IDoP0=0 IntGTp=1.
 FoFCou: FMM=F IPFlag=           0 FMFlag=      100000 FMFlg1=           0
         NFxFlg=           0 DoJE=F BraDBF=F KetDBF=F FulRan=T
         wScrn=  0.000000 ICntrl=         0 IOpCl=  0 I1Cent=           0 NGrid=           0
         NMat0=    1 NMatS0=      1 NMatT0=    0 NMatD0=    1 NMtDS0=    0 NMtDT0=    0
 Symmetry not used in FoFCou.
 E= -672.426099280281    
 DIIS: error= 3.32D-02 at cycle   1 NSaved=   1.
 NSaved= 1 IEnMin= 1 EnMin= -672.426099280281     IErMin= 1 ErrMin= 3.32D-02
 ErrMax= 3.32D-02  0.00D+00 EMaxC= 1.00D-01 BMatC= 3.82D-01 BMatP= 3.82D-01
 IDIUse=3 WtCom= 6.68D-01 WtEn= 3.32D-01
 Coeff-Com:  0.100D+01
 Coeff-En:   0.100D+01
 Coeff:      0.100D+01
 Gap=     0.203 Goal=   None    Shift=    0.000
 GapD=    0.203 DampG=1.000 DampE=0.500 DampFc=0.5000 IDamp=-1.
 Damping current iteration by 5.00D-01
 RMSDP=1.50D-02 MaxDP=1.04D+00              OVMax= 1.47D-01

 Cycle   2  Pass 1  IDiag  1:
 RMSU=  5.11D-03    CP:  8.74D-01
 E= -672.610326084161     Delta-E=       -0.184226803880 Rises=F Damp=T
 DIIS: error= 8.59D-03 at cycle   2 NSaved=   2.
 NSaved= 2 IEnMin= 2 EnMin= -672.610326084161     IErMin= 2 ErrMin= 8.59D-03
 ErrMax= 8.59D-03  0.00D+00 EMaxC= 1.00D-01 BMatC= 3.33D-02 BMatP= 3.82D-01
 IDIUse=3 WtCom= 9.14D-01 WtEn= 8.59D-02
 Coeff-Com: -0.151D+00 0.115D+01
 Coeff-En:   0.000D+00 0.100D+01
 Coeff:     -0.138D+00 0.114D+01
 Gap=     0.256 Goal=   None    Shift=    0.000
 RMSDP=1.32D-02 MaxDP=1.05D+00 DE=-1.84D-01 OVMax= 8.09D-02

 Cycle   3  Pass 1  IDiag  1:
 RMSU=  5.47D-03    CP:  5.98D-01  8.69D-01
 E= -672.776383041866     Delta-E=       -0.166056957705 Rises=F Damp=F
 DIIS: error= 4.96D-03 at cycle   3 NSaved=   3.
 NSaved= 3 IEnMin= 3 EnMin= -672.776383041866     IErMin= 3 ErrMin= 4.96D-03
 ErrMax= 4.96D-03  0.00D+00 EMaxC= 1.00D-01 BMatC= 6.48D-03 BMatP= 3.33D-02
 IDIUse=3 WtCom= 9.50D-01 WtEn= 4.96D-02
 Coeff-Com: -0.958D-01 0.354D+00 0.742D+00
 Coeff-En:   0.000D+00 0.000D+00 0.100D+01
 Coeff:     -0.911D-01 0.337D+00 0.755D+00
 Gap=     0.162 Goal=   None    Shift=    0.000
 RMSDP=2.15D-03 MaxDP=1.11D-01 DE=-1.66D-01 OVMax= 4.06D-02

 Cycle   4  Pass 1  IDiag  1:
 RMSU=  1.14D-03    CP:  5.65D-01  1.03D+00  8.60D-01
 E= -672.779891299999     Delta-E=       -0.003508258133 Rises=F Damp=F
 DIIS: error= 3.48D-03 at cycle   4 NSaved=   4.
 NSaved= 4 IEnMin= 4 EnMin= -672.779891299999     IErMin= 4 ErrMin= 3.48D-03
 ErrMax= 3.48D-03  0.00D+00 EMaxC= 1.00D-01 BMatC= 2.45D-03 BMatP= 6.48D-03
 IDIUse=3 WtCom= 9.65D-01 WtEn= 3.48D-02
 Coeff-Com: -0.407D-01 0.120D+00 0.427D+00 0.493D+00
 Coeff-En:   0.000D+00 0.000D+00 0.280D+00 0.720D+00
 Coeff:     -0.393D-01 0.116D+00 0.422D+00 0.501D+00
 Gap=     0.161 Goal=   None    Shift=    0.000
 RMSDP=5.87D-04 MaxDP=2.29D-02 DE=-3.51D-03 OVMax= 2.68D-02

 Cycle   5  Pass 1  IDiag  1:
 RMSU=  4.19D-04    CP:  5.61D-01  1.03D+00  8.85D-01  6.99D-01
 E= -672.782090543176     Delta-E=       -0.002199243177 Rises=F Damp=F
 DIIS: error= 1.52D-03 at cycle   5 NSaved=   5.
 NSaved= 5 IEnMin= 5 EnMin= -672.782090543176     IErMin= 5 ErrMin= 1.52D-03
 ErrMax= 1.52D-03  0.00D+00 EMaxC= 1.00D-01 BMatC= 1.92D-04 BMatP= 2.45D-03
 IDIUse=3 WtCom= 9.85D-01 WtEn= 1.52D-02
 Coeff-Com: -0.135D-01 0.356D-01 0.164D+00 0.274D+00 0.540D+00
 Coeff-En:   0.000D+00 0.000D+00 0.000D+00 0.242D-01 0.976D+00
 Coeff:     -0.133D-01 0.350D-01 0.162D+00 0.270D+00 0.547D+00
 Gap=     0.161 Goal=   None    Shift=    0.000
 RMSDP=2.51D-04 MaxDP=1.40D-02 DE=-2.20D-03 OVMax= 9.86D-03

 Cycle   6  Pass 1  IDiag  1:
 RMSU=  9.32D-05    CP:  5.64D-01  1.02D+00  8.92D-01  7.05D-01  6.24D-01
 E= -672.782282740120     Delta-E=       -0.000192196944 Rises=F Damp=F
 DIIS: error= 4.70D-04 at cycle   6 NSaved=   6.
 NSaved= 6 IEnMin= 6 EnMin= -672.782282740120     IErMin= 6 ErrMin= 4.70D-04
 ErrMax= 4.70D-04  0.00D+00 EMaxC= 1.00D-01 BMatC= 2.76D-05 BMatP= 1.92D-04
 IDIUse=3 WtCom= 9.95D-01 WtEn= 4.70D-03
 Coeff-Com: -0.213D-02 0.389D-02 0.368D-01 0.870D-01 0.324D+00 0.550D+00
 Coeff-En:   0.000D+00 0.000D+00 0.000D+00 0.000D+00 0.975D-01 0.903D+00
 Coeff:     -0.212D-02 0.387D-02 0.367D-01 0.866D-01 0.323D+00 0.552D+00
 Gap=     0.161 Goal=   None    Shift=    0.000
 RMSDP=4.71D-05 MaxDP=2.04D-03 DE=-1.92D-04 OVMax= 2.19D-03

 Cycle   7  Pass 1  IDiag  1:
 RMSU=  3.78D-05    CP:  5.64D-01  1.03D+00  8.93D-01  6.96D-01  6.64D-01
                    CP:  8.37D-01
 E= -672.782310357705     Delta-E=       -0.000027617585 Rises=F Damp=F
 DIIS: error= 9.45D-05 at cycle   7 NSaved=   7.
 NSaved= 7 IEnMin= 7 EnMin= -672.782310357705     IErMin= 7 ErrMin= 9.45D-05
 ErrMax= 9.45D-05  0.00D+00 EMaxC= 1.00D-01 BMatC= 6.51D-07 BMatP= 2.76D-05
 IDIUse=1 WtCom= 1.00D+00 WtEn= 0.00D+00
 Coeff-Com:  0.549D-03-0.210D-02-0.166D-02 0.389D-02 0.706D-01 0.166D+00
 Coeff-Com:  0.763D+00
 Coeff:      0.549D-03-0.210D-02-0.166D-02 0.389D-02 0.706D-01 0.166D+00
 Coeff:      0.763D+00
 Gap=     0.162 Goal=   None    Shift=    0.000
 RMSDP=1.53D-05 MaxDP=6.51D-04 DE=-2.76D-05 OVMax= 7.25D-04

 Cycle   8  Pass 1  IDiag  1:
 RMSU=  7.96D-06    CP:  5.64D-01  1.03D+00  8.93D-01  6.97D-01  6.76D-01
                    CP:  9.05D-01  1.01D+00
 E= -672.782310853000     Delta-E=       -0.000000495295 Rises=F Damp=F
 DIIS: error= 6.51D-05 at cycle   8 NSaved=   8.
 NSaved= 8 IEnMin= 8 EnMin= -672.782310853000     IErMin= 8 ErrMin= 6.51D-05
 ErrMax= 6.51D-05  0.00D+00 EMaxC= 1.00D-01 BMatC= 4.12D-07 BMatP= 6.51D-07
 IDIUse=1 WtCom= 1.00D+00 WtEn= 0.00D+00
 Coeff-Com:  0.712D-03-0.203D-02-0.672D-02-0.109D-01 0.160D-02 0.252D-01
 Coeff-Com:  0.494D+00 0.498D+00
 Coeff:      0.712D-03-0.203D-02-0.672D-02-0.109D-01 0.160D-02 0.252D-01
 Coeff:      0.494D+00 0.498D+00
 Gap=     0.162 Goal=   None    Shift=    0.000
 RMSDP=4.87D-06 MaxDP=1.49D-04 DE=-4.95D-07 OVMax= 2.87D-04

 Cycle   9  Pass 1  IDiag  1:
 RMSU=  3.75D-06    CP:  5.64D-01  1.03D+00  8.93D-01  6.97D-01  6.77D-01
                    CP:  9.09D-01  1.08D+00  8.57D-01
 E= -672.782311325849     Delta-E=       -0.000000472849 Rises=F Damp=F
 DIIS: error= 1.38D-05 at cycle   9 NSaved=   9.
 NSaved= 9 IEnMin= 9 EnMin= -672.782311325849     IErMin= 9 ErrMin= 1.38D-05
 ErrMax= 1.38D-05  0.00D+00 EMaxC= 1.00D-01 BMatC= 1.16D-08 BMatP= 4.12D-07
 IDIUse=1 WtCom= 1.00D+00 WtEn= 0.00D+00
 Coeff-Com:  0.160D-03-0.385D-03-0.161D-02-0.371D-02-0.456D-02-0.119D-01
 Coeff-Com:  0.670D-01 0.112D+00 0.843D+00
 Coeff:      0.160D-03-0.385D-03-0.161D-02-0.371D-02-0.456D-02-0.119D-01
 Coeff:      0.670D-01 0.112D+00 0.843D+00
 Gap=     0.162 Goal=   None    Shift=    0.000
 RMSDP=1.56D-06 MaxDP=4.15D-05 DE=-4.73D-07 OVMax= 9.36D-05

 Cycle  10  Pass 1  IDiag  1:
 RMSU=  1.13D-06    CP:  5.64D-01  1.03D+00  8.93D-01  6.97D-01  6.79D-01
                    CP:  9.13D-01  1.09D+00  9.09D-01  1.05D+00
 E= -672.782311345315     Delta-E=       -0.000000019465 Rises=F Damp=F
 DIIS: error= 5.56D-06 at cycle  10 NSaved=  10.
 NSaved=10 IEnMin=10 EnMin= -672.782311345315     IErMin=10 ErrMin= 5.56D-06
 ErrMax= 5.56D-06  0.00D+00 EMaxC= 1.00D-01 BMatC= 5.38D-09 BMatP= 1.16D-08
 IDIUse=1 WtCom= 1.00D+00 WtEn= 0.00D+00
 Coeff-Com: -0.529D-04 0.200D-03 0.459D-03-0.805D-04-0.289D-02-0.139D-01
 Coeff-Com: -0.630D-01-0.480D-01 0.489D+00 0.638D+00
 Coeff:     -0.529D-04 0.200D-03 0.459D-03-0.805D-04-0.289D-02-0.139D-01
 Coeff:     -0.630D-01-0.480D-01 0.489D+00 0.638D+00
 Gap=     0.162 Goal=   None    Shift=    0.000
 RMSDP=1.07D-06 MaxDP=7.31D-05 DE=-1.95D-08 OVMax= 3.78D-05

 Cycle  11  Pass 1  IDiag  1:
 RMSU=  6.43D-07    CP:  5.64D-01  1.03D+00  8.93D-01  6.97D-01  6.79D-01
                    CP:  9.13D-01  1.10D+00  9.36D-01  1.10D+00  8.88D-01
 E= -672.782311352445     Delta-E=       -0.000000007130 Rises=F Damp=F
 DIIS: error= 2.33D-06 at cycle  11 NSaved=  11.
 NSaved=11 IEnMin=11 EnMin= -672.782311352445     IErMin=11 ErrMin= 2.33D-06
 ErrMax= 2.33D-06  0.00D+00 EMaxC= 1.00D-01 BMatC= 2.93D-10 BMatP= 5.38D-09
 IDIUse=1 WtCom= 1.00D+00 WtEn= 0.00D+00
 Coeff-Com: -0.351D-04 0.105D-03 0.344D-03 0.369D-03 0.862D-04-0.288D-02
 Coeff-Com: -0.220D-01-0.296D-01 0.453D-01 0.179D+00 0.829D+00
 Coeff:     -0.351D-04 0.105D-03 0.344D-03 0.369D-03 0.862D-04-0.288D-02
 Coeff:     -0.220D-01-0.296D-01 0.453D-01 0.179D+00 0.829D+00
 Gap=     0.162 Goal=   None    Shift=    0.000
 RMSDP=2.39D-07 MaxDP=1.09D-05 DE=-7.13D-09 OVMax= 1.18D-05

 Cycle  12  Pass 1  IDiag  1:
 RMSU=  1.21D-07    CP:  5.64D-01  1.03D+00  8.93D-01  6.97D-01  6.80D-01
                    CP:  9.12D-01  1.10D+00  9.40D-01  1.13D+00  9.64D-01
                    CP:  1.00D+00
 E= -672.782311352842     Delta-E=       -0.000000000397 Rises=F Damp=F
 DIIS: error= 4.78D-07 at cycle  12 NSaved=  12.
 NSaved=12 IEnMin=12 EnMin= -672.782311352842     IErMin=12 ErrMin= 4.78D-07
 ErrMax= 4.78D-07  0.00D+00 EMaxC= 1.00D-01 BMatC= 4.80D-11 BMatP= 2.93D-10
 IDIUse=1 WtCom= 1.00D+00 WtEn= 0.00D+00
 Coeff-Com: -0.973D-05 0.241D-04 0.995D-04 0.150D-03 0.343D-03-0.660D-04
 Coeff-Com: -0.287D-02-0.925D-02-0.325D-01 0.807D-02 0.356D+00 0.680D+00
 Coeff:     -0.973D-05 0.241D-04 0.995D-04 0.150D-03 0.343D-03-0.660D-04
 Coeff:     -0.287D-02-0.925D-02-0.325D-01 0.807D-02 0.356D+00 0.680D+00
 Gap=     0.162 Goal=   None    Shift=    0.000
 RMSDP=8.98D-08 MaxDP=3.29D-06 DE=-3.97D-10 OVMax= 4.27D-06

 Cycle  13  Pass 1  IDiag  1:
 RMSU=  4.65D-08    CP:  5.64D-01  1.03D+00  8.93D-01  6.97D-01  6.80D-01
                    CP:  9.11D-01  1.10D+00  9.39D-01  1.14D+00  9.83D-01
                    CP:  1.02D+00  1.17D+00
 E= -672.782311352922     Delta-E=       -0.000000000080 Rises=F Damp=F
 DIIS: error= 2.60D-07 at cycle  13 NSaved=  13.
 NSaved=13 IEnMin=13 EnMin= -672.782311352922     IErMin=13 ErrMin= 2.60D-07
 ErrMax= 2.60D-07  0.00D+00 EMaxC= 1.00D-01 BMatC= 5.01D-12 BMatP= 4.80D-11
 IDIUse=1 WtCom= 1.00D+00 WtEn= 0.00D+00
 Coeff-Com:  0.438D-06-0.345D-05-0.200D-05 0.113D-04 0.151D-03 0.263D-03
 Coeff-Com:  0.186D-02-0.673D-04-0.170D-01-0.203D-01 0.212D-01 0.244D+00
 Coeff-Com:  0.770D+00
 Coeff:      0.438D-06-0.345D-05-0.200D-05 0.113D-04 0.151D-03 0.263D-03
 Coeff:      0.186D-02-0.673D-04-0.170D-01-0.203D-01 0.212D-01 0.244D+00
 Coeff:      0.770D+00
 Gap=     0.162 Goal=   None    Shift=    0.000
 RMSDP=4.16D-08 MaxDP=2.44D-06 DE=-7.96D-11 OVMax= 1.38D-06

 Cycle  14  Pass 1  IDiag  1:
 RMSU=  2.35D-08    CP:  5.64D-01  1.03D+00  8.93D-01  6.97D-01  6.80D-01
                    CP:  9.11D-01  1.10D+00  9.38D-01  1.13D+00  9.89D-01
                    CP:  1.03D+00  1.26D+00  9.97D-01
 E= -672.782311352937     Delta-E=       -0.000000000015 Rises=F Damp=F
 DIIS: error= 7.13D-08 at cycle  14 NSaved=  14.
 NSaved=14 IEnMin=14 EnMin= -672.782311352937     IErMin=14 ErrMin= 7.13D-08
 ErrMax= 7.13D-08  0.00D+00 EMaxC= 1.00D-01 BMatC= 5.31D-13 BMatP= 5.01D-12
 IDIUse=1 WtCom= 1.00D+00 WtEn= 0.00D+00
 Coeff-Com:  0.919D-06-0.303D-05-0.812D-05-0.821D-05 0.364D-04 0.750D-04
 Coeff-Com:  0.939D-03 0.639D-03-0.278D-02-0.757D-02-0.246D-01 0.285D-01
 Coeff-Com:  0.273D+00 0.732D+00
 Coeff:      0.919D-06-0.303D-05-0.812D-05-0.821D-05 0.364D-04 0.750D-04
 Coeff:      0.939D-03 0.639D-03-0.278D-02-0.757D-02-0.246D-01 0.285D-01
 Coeff:      0.273D+00 0.732D+00
 Gap=     0.162 Goal=   None    Shift=    0.000
 RMSDP=9.70D-09 MaxDP=3.57D-07 DE=-1.52D-11 OVMax= 4.24D-07

 SCF Done:  E(RMN15) =  -672.782311353     A.U. after   14 cycles
            NFock= 14  Conv=0.97D-08     -V/T= 2.0039
 KE= 6.701391131996D+02 PE=-3.830177048149D+03 EE= 1.353192832895D+03
 Leave Link  502 at Wed Dec  6 05:40:14 2023, MaxMem=  2147483648 cpu:            6620.7 elap:             262.5
 (Enter /opt/gaussian/g16-c01/g16/l601.exe)
 Copying SCF densities to generalized density rwf, IOpCl= 0 IROHF=0.

 **********************************************************************

            Population analysis using the SCF Density.

 **********************************************************************

 Orbital symmetries:
       Occupied  (A) (A) (A) (A) (A) (A) (A) (A) (A) (A) (A) (A)
                 (A) (A) (A) (A) (A) (A) (A) (A) (A) (A) (A) (A)
                 (A) (A) (A) (A) (A) (A) (A) (A) (A) (A) (A) (A)
                 (A) (A) (A) (A) (A) (A) (A) (A) (A) (A) (A) (A)
                 (A) (A) (A) (A) (A) (A) (A) (A) (A) (A) (A)
       Virtual   (A) (A) (A) (A) (A) (A) (A) (A) (A) (A) (A) (A)
                 (A) (A) (A) (A) (A) (A) (A) (A) (A) (A) (A) (A)
                 (A) (A) (A) (A) (A) (A) (A) (A) (A) (A) (A) (A)
                 (A) (A) (A) (A) (A) (A) (A) (A) (A) (A) (A) (A)
                 (A) (A) (A) (A) (A) (A) (A) (A) (A) (A) (A) (A)
                 (A) (A) (A) (A) (A) (A) (A) (A) (A) (A) (A) (A)
                 (A) (A) (A) (A) (A) (A) (A) (A) (A) (A) (A) (A)
                 (A) (A) (A) (A) (A) (A) (A) (A) (A) (A) (A) (A)
                 (A) (A) (A) (A) (A) (A) (A) (A) (A) (A) (A) (A)
                 (A) (A) (A) (A) (A) (A) (A) (A) (A) (A) (A) (A)
                 (A) (A) (A) (A) (A) (A) (A) (A) (A) (A) (A) (A)
                 (A) (A) (A) (A) (A) (A) (A) (A) (A) (A) (A) (A)
                 (A) (A) (A) (A) (A) (A) (A) (A) (A) (A) (A) (A)
                 (A) (A) (A) (A) (A) (A) (A) (A) (A) (A) (A) (A)
                 (A) (A) (A) (A) (A) (A) (A) (A) (A) (A) (A) (A)
                 (A) (A) (A) (A) (A) (A) (A) (A) (A) (A) (A) (A)
                 (A) (A) (A) (A) (A) (A) (A) (A) (A) (A) (A) (A)
                 (A) (A) (A) (A) (A) (A) (A) (A) (A) (A) (A) (A)
                 (A) (A) (A) (A) (A) (A) (A) (A) (A) (A) (A) (A)
                 (A) (A) (A) (A) (A) (A) (A) (A) (A) (A) (A) (A)
                 (A) (A) (A) (A) (A) (A) (A) (A) (A) (A) (A) (A)
                 (A) (A) (A) (A) (A) (A) (A) (A) (A) (A) (A) (A)
                 (A) (A) (A) (A) (A) (A) (A) (A) (A) (A) (A) (A)
                 (A) (A) (A) (A) (A) (A) (A) (A) (A) (A) (A) (A)
                 (A) (A) (A) (A) (A) (A) (A) (A) (A) (A) (A) (A)
                 (A) (A) (A) (A) (A) (A) (A) (A) (A) (A) (A) (A)
                 (A) (A) (A) (A) (A) (A) (A) (A) (A) (A) (A) (A)
                 (A) (A) (A) (A) (A) (A) (A) (A) (A) (A) (A) (A)
                 (A) (A) (A) (A) (A) (A) (A) (A) (A) (A) (A) (A)
                 (A) (A) (A) (A) (A) (A) (A) (A) (A) (A) (A) (A)
                 (A) (A) (A) (A) (A) (A) (A) (A) (A) (A) (A) (A)
                 (A) (A) (A) (A) (A) (A) (A) (A) (A) (A) (A) (A)
                 (A) (A) (A) (A) (A) (A) (A) (A) (A) (A) (A) (A)
                 (A) (A) (A) (A) (A) (A) (A) (A) (A) (A) (A) (A)
                 (A) (A) (A) (A)
 The electronic state is 1-A.
 Alpha  occ. eigenvalues --  -14.07161 -10.07538 -10.05724 -10.05721 -10.05178
 Alpha  occ. eigenvalues --  -10.05178 -10.04823 -10.04820 -10.04713 -10.04653
 Alpha  occ. eigenvalues --  -10.04651 -10.04479 -10.04476 -10.04434 -10.04429
 Alpha  occ. eigenvalues --  -10.04381 -10.04375  -0.97692  -0.92728  -0.90527
 Alpha  occ. eigenvalues --   -0.85026  -0.82332  -0.79651  -0.79108  -0.75522
 Alpha  occ. eigenvalues --   -0.74559  -0.70260  -0.68096  -0.66061  -0.63810
 Alpha  occ. eigenvalues --   -0.61921  -0.57877  -0.57852  -0.55286  -0.51477
 Alpha  occ. eigenvalues --   -0.50664  -0.50655  -0.50370  -0.50179  -0.48758
 Alpha  occ. eigenvalues --   -0.46999  -0.45376  -0.45069  -0.44974  -0.44179
 Alpha  occ. eigenvalues --   -0.43932  -0.42503  -0.41420  -0.41312  -0.40897
 Alpha  occ. eigenvalues --   -0.39055  -0.37439  -0.37194  -0.34761  -0.33674
 Alpha  occ. eigenvalues --   -0.29349  -0.28199  -0.24105  -0.22001
 Alpha virt. eigenvalues --   -0.05845   0.00291   0.01720   0.02982   0.03955
 Alpha virt. eigenvalues --    0.03964   0.04095   0.05323   0.05596   0.06179
 Alpha virt. eigenvalues --    0.06763   0.07142   0.07401   0.07910   0.08660
 Alpha virt. eigenvalues --    0.08822   0.09126   0.09166   0.09491   0.10370
 Alpha virt. eigenvalues --    0.11420   0.11764   0.12542   0.12802   0.12916
 Alpha virt. eigenvalues --    0.13177   0.13642   0.14167   0.14471   0.14704
 Alpha virt. eigenvalues --    0.15565   0.15756   0.15786   0.16019   0.16183
 Alpha virt. eigenvalues --    0.16475   0.16683   0.16760   0.16869   0.17206
 Alpha virt. eigenvalues --    0.17256   0.17517   0.17707   0.18419   0.18648
 Alpha virt. eigenvalues --    0.19197   0.19560   0.20280   0.20573   0.20651
 Alpha virt. eigenvalues --    0.21106   0.21191   0.22243   0.22528   0.22838
 Alpha virt. eigenvalues --    0.22942   0.23687   0.23732   0.24127   0.24497
 Alpha virt. eigenvalues --    0.24523   0.24886   0.25499   0.25903   0.25957
 Alpha virt. eigenvalues --    0.26838   0.27332   0.27506   0.28041   0.28203
 Alpha virt. eigenvalues --    0.28314   0.28807   0.29471   0.29492   0.29824
 Alpha virt. eigenvalues --    0.30323   0.30699   0.31234   0.31454   0.32236
 Alpha virt. eigenvalues --    0.32374   0.32928   0.33193   0.33358   0.34218
 Alpha virt. eigenvalues --    0.34688   0.34749   0.35053   0.35431   0.35946
 Alpha virt. eigenvalues --    0.36329   0.37168   0.37922   0.38357   0.38793
 Alpha virt. eigenvalues --    0.39419   0.39692   0.40011   0.40555   0.40737
 Alpha virt. eigenvalues --    0.41943   0.42165   0.42773   0.44592   0.44922
 Alpha virt. eigenvalues --    0.45189   0.45580   0.47758   0.47814   0.49533
 Alpha virt. eigenvalues --    0.51707   0.52588   0.52798   0.54998   0.55737
 Alpha virt. eigenvalues --    0.55969   0.57282   0.57697   0.58439   0.58720
 Alpha virt. eigenvalues --    0.58741   0.59353   0.60168   0.60262   0.60468
 Alpha virt. eigenvalues --    0.61364   0.61600   0.63026   0.63175   0.63729
 Alpha virt. eigenvalues --    0.64914   0.64966   0.65149   0.65279   0.66194
 Alpha virt. eigenvalues --    0.66702   0.66888   0.68233   0.68387   0.69102
 Alpha virt. eigenvalues --    0.69498   0.69678   0.70903   0.71452   0.71824
 Alpha virt. eigenvalues --    0.73516   0.73655   0.75976   0.76236   0.76347
 Alpha virt. eigenvalues --    0.77116   0.77986   0.78998   0.79049   0.79160
 Alpha virt. eigenvalues --    0.80342   0.81037   0.81440   0.82038   0.82130
 Alpha virt. eigenvalues --    0.84195   0.84312   0.85469   0.86470   0.88053
 Alpha virt. eigenvalues --    0.88716   0.90792   0.91089   0.91460   0.92006
 Alpha virt. eigenvalues --    0.92451   0.93021   0.93427   0.93675   0.94683
 Alpha virt. eigenvalues --    0.95271   0.97031   0.97104   0.97240   0.98080
 Alpha virt. eigenvalues --    0.98415   0.99086   1.01035   1.01664   1.02223
 Alpha virt. eigenvalues --    1.02866   1.03149   1.05002   1.05103   1.06847
 Alpha virt. eigenvalues --    1.07356   1.09097   1.09530   1.09610   1.10902
 Alpha virt. eigenvalues --    1.11163   1.13596   1.14541   1.15974   1.16331
 Alpha virt. eigenvalues --    1.17216   1.19096   1.19341   1.22219   1.23600
 Alpha virt. eigenvalues --    1.26103   1.31977   1.32777   1.33605   1.40135
 Alpha virt. eigenvalues --    1.40320   1.42326   1.42651   1.43626   1.47765
 Alpha virt. eigenvalues --    1.49033   1.49481   1.50101   1.50163   1.50724
 Alpha virt. eigenvalues --    1.50979   1.51699   1.53657   1.53980   1.56302
 Alpha virt. eigenvalues --    1.56476   1.56710   1.58094   1.58579   1.58593
 Alpha virt. eigenvalues --    1.58704   1.60462   1.62288   1.63436   1.63710
 Alpha virt. eigenvalues --    1.65213   1.65516   1.67527   1.67783   1.68541
 Alpha virt. eigenvalues --    1.69590   1.70138   1.70338   1.72011   1.73739
 Alpha virt. eigenvalues --    1.74079   1.74467   1.75326   1.75779   1.76278
 Alpha virt. eigenvalues --    1.76333   1.80313   1.80822   1.81245   1.82688
 Alpha virt. eigenvalues --    1.83289   1.83561   1.87429   1.89350   1.89548
 Alpha virt. eigenvalues --    1.89744   1.91212   1.91666   1.92083   1.92448
 Alpha virt. eigenvalues --    1.94416   1.95528   1.95860   1.96148   1.96451
 Alpha virt. eigenvalues --    1.97203   1.98961   1.99301   1.99826   1.99958
 Alpha virt. eigenvalues --    2.02588   2.02902   2.06883   2.07599   2.07680
 Alpha virt. eigenvalues --    2.08461   2.12552   2.13294   2.14803   2.15751
 Alpha virt. eigenvalues --    2.18501   2.20116   2.21221   2.22228   2.24054
 Alpha virt. eigenvalues --    2.24212   2.24649   2.27052   2.27790   2.34294
 Alpha virt. eigenvalues --    2.37128   2.37390   2.39863   2.43020   2.43343
 Alpha virt. eigenvalues --    2.43883   2.44819   2.46241   2.46500   2.46887
 Alpha virt. eigenvalues --    2.47428   2.49118   2.52023   2.52401   2.55309
 Alpha virt. eigenvalues --    2.56061   2.58452   2.61388   2.63016   2.63798
 Alpha virt. eigenvalues --    2.64066   2.65519   2.65822   2.67211   2.67627
 Alpha virt. eigenvalues --    2.69642   2.69693   2.70516   2.71003   2.71160
 Alpha virt. eigenvalues --    2.73052   2.73131   2.74003   2.74137   2.74280
 Alpha virt. eigenvalues --    2.75476   2.75703   2.76362   2.77385   2.79365
 Alpha virt. eigenvalues --    2.80104   2.81764   2.82266   2.82369   2.83292
 Alpha virt. eigenvalues --    2.83980   2.86213   2.86992   2.88143   2.90072
 Alpha virt. eigenvalues --    2.92497   2.93860   2.95447   2.97434   3.02276
 Alpha virt. eigenvalues --    3.02781   3.03018   3.05737   3.08221   3.13844
 Alpha virt. eigenvalues --    3.19785   3.20462   3.21877   3.25877   3.33057
 Alpha virt. eigenvalues --    3.34899   3.35262   3.35981   3.41846   3.42241
 Alpha virt. eigenvalues --    3.43007   3.47236   3.48538   3.50346   3.50754
 Alpha virt. eigenvalues --    3.51403   3.55603   3.60720   3.65520   3.71512
 Alpha virt. eigenvalues --    3.72148   3.74253   3.76963   3.77625   3.79707
 Alpha virt. eigenvalues --    3.96205   3.96964   3.98121   3.98949   4.08192
 Alpha virt. eigenvalues --    4.09627   4.14914   4.16719   4.17205   4.40057
 Alpha virt. eigenvalues --    4.71777   4.73921   4.78110   4.85007   4.92015
 Alpha virt. eigenvalues --   22.44792  22.64342  22.80163  22.83359  22.85469
 Alpha virt. eigenvalues --   22.86520  22.86614  22.90751  22.90965  22.94599
 Alpha virt. eigenvalues --   22.95222  22.96886  22.96958  23.02129  23.06119
 Alpha virt. eigenvalues --   23.06157  33.92208
          Condensed to atoms (all electrons):
               1          2          3          4          5          6
     1  N    8.418394  -1.055295  -0.460296  -0.455027  -0.307331  -0.303384
     2  C   -1.055295  10.002637   1.528509   1.516700   0.242642   0.251549
     3  C   -0.460296   1.528509   7.134025  -0.095076   1.112218  -0.584328
     4  C   -0.455027   1.516700  -0.095076   7.150779  -0.592958   1.118574
     5  C   -0.307331   0.242642   1.112218  -0.592958   7.765349  -0.004518
     6  C   -0.303384   0.251549  -0.584328   1.118574  -0.004518   7.723409
     7  C   -0.093498   1.044766   0.959047   0.967334   0.901723   0.889147
     8  C    0.220918  -1.816087  -0.593265  -0.789551  -0.653853  -0.549203
     9  C    0.239823  -1.796571  -0.784321  -0.585628  -0.552300  -0.613927
    10  C   -0.049630  -1.215715  -1.041959  -0.884775  -0.397704  -0.750789
    11  C   -0.043302  -1.191074  -0.872267  -1.048968  -0.723248  -0.385281
    12  C    0.439770  -0.481733  -0.072099  -0.017214  -0.114199  -0.134351
    13  C    0.450810  -0.501952  -0.023894  -0.068881  -0.142526  -0.109688
    14  C    0.205348  -0.045752  -0.837776   0.136820   0.062639  -0.036374
    15  C    0.227021  -0.070125   0.123611  -0.857372  -0.054214   0.049411
    16  C    0.017596  -0.081526   0.255289  -0.051510  -0.696485  -0.196642
    17  C    0.020472  -0.086416  -0.051199   0.251277  -0.187124  -0.697451
    18  H    0.003296   0.127796   0.038573   0.040585  -0.031200  -0.029692
    19  H   -0.027320  -0.072314   0.009572  -0.038366  -0.004316  -0.007516
    20  H   -0.030967  -0.072395  -0.039801   0.015494  -0.006324  -0.003816
    21  H    0.001742  -0.019506  -0.021238  -0.020498  -0.130838  -0.016317
    22  H    0.001934  -0.018073  -0.019884  -0.020967  -0.016367  -0.129582
    23  H   -0.108157   0.110126  -0.005538  -0.015144   0.006524   0.009766
    24  H   -0.093753  -0.030398  -0.008840  -0.003452  -0.009714  -0.008577
    25  H   -0.054883  -0.012300   0.030833   0.039281  -0.005548  -0.013710
    26  H   -0.107228   0.098629  -0.014066  -0.007106   0.009823   0.005289
    27  H   -0.106627  -0.016744  -0.003568  -0.002557  -0.007127  -0.004726
    28  H   -0.045564  -0.022552   0.036374   0.029543  -0.014590  -0.008545
    29  H    0.002719   0.004036  -0.003042   0.001635   0.034084   0.000388
    30  H    0.003009   0.004594   0.001825  -0.004844   0.000393   0.035695
    31  H    0.000284   0.006573   0.015751   0.000270   0.040389   0.002245
    32  H    0.000343   0.006737   0.000267   0.015846   0.002240   0.042395
               7          8          9         10         11         12
     1  N   -0.093498   0.220918   0.239823  -0.049630  -0.043302   0.439770
     2  C    1.044766  -1.816087  -1.796571  -1.215715  -1.191074  -0.481733
     3  C    0.959047  -0.593265  -0.784321  -1.041959  -0.872267  -0.072099
     4  C    0.967334  -0.789551  -0.585628  -0.884775  -1.048968  -0.017214
     5  C    0.901723  -0.653853  -0.552300  -0.397704  -0.723248  -0.114199
     6  C    0.889147  -0.549203  -0.613927  -0.750789  -0.385281  -0.134351
     7  C    6.958222  -1.121446  -1.102789  -1.706959  -1.696501  -0.017687
     8  C   -1.121446   9.298697   0.069963   2.605909  -0.054780   0.096992
     9  C   -1.102789   0.069963   9.189630  -0.064826   2.539059   0.023991
    10  C   -1.706959   2.605909  -0.064826   9.917973  -0.381483  -0.004051
    11  C   -1.696501  -0.054780   2.539059  -0.381483   9.854405  -0.014110
    12  C   -0.017687   0.096992   0.023991  -0.004051  -0.014110   5.039942
    13  C   -0.018149   0.017201   0.123886  -0.021167   0.002125  -0.014860
    14  C    0.032753  -0.598097   0.084655  -0.779295   0.039849   0.079567
    15  C    0.016528   0.080207  -0.526951   0.038194  -0.736156   0.029454
    16  C   -0.096004  -0.230868  -0.068395   0.776001  -0.147125   0.014616
    17  C   -0.086071  -0.068161  -0.231985  -0.146074   0.763122   0.012262
    18  H    0.358687  -0.039968  -0.037298  -0.107792  -0.101602   0.001370
    19  H   -0.022832   0.500003  -0.007872   0.103237  -0.002260  -0.002962
    20  H   -0.023439  -0.008782   0.506051  -0.002061   0.106766   0.017592
    21  H   -0.015978   0.080877   0.003093   0.490058   0.009558   0.000536
    22  H   -0.015464   0.003361   0.079280   0.008765   0.487866   0.000058
    23  H   -0.004115  -0.004828   0.012937   0.002454   0.000616   0.344392
    24  H    0.006191   0.008248   0.002475  -0.010719  -0.000991   0.432597
    25  H    0.008824  -0.012682  -0.029934   0.000249  -0.012609   0.430302
    26  H   -0.003869   0.017067  -0.005555   0.000523   0.002279  -0.021980
    27  H    0.005531  -0.003693   0.006924  -0.000962  -0.009023   0.023233
    28  H    0.007811  -0.020769  -0.011854  -0.010222  -0.000079   0.008736
    29  H    0.001201  -0.131298  -0.000062  -0.018605   0.001103  -0.000317
    30  H    0.001213   0.000142  -0.136422   0.001107  -0.019411  -0.002017
    31  H    0.003534  -0.034127   0.000029  -0.091273  -0.001459   0.000174
    32  H    0.003709   0.000042  -0.036642  -0.001517  -0.092278   0.000154
              13         14         15         16         17         18
     1  N    0.450810   0.205348   0.227021   0.017596   0.020472   0.003296
     2  C   -0.501952  -0.045752  -0.070125  -0.081526  -0.086416   0.127796
     3  C   -0.023894  -0.837776   0.123611   0.255289  -0.051199   0.038573
     4  C   -0.068881   0.136820  -0.857372  -0.051510   0.251277   0.040585
     5  C   -0.142526   0.062639  -0.054214  -0.696485  -0.187124  -0.031200
     6  C   -0.109688  -0.036374   0.049411  -0.196642  -0.697451  -0.029692
     7  C   -0.018149   0.032753   0.016528  -0.096004  -0.086071   0.358687
     8  C    0.017201  -0.598097   0.080207  -0.230868  -0.068161  -0.039968
     9  C    0.123886   0.084655  -0.526951  -0.068395  -0.231985  -0.037298
    10  C   -0.021167  -0.779295   0.038194   0.776001  -0.146074  -0.107792
    11  C    0.002125   0.039849  -0.736156  -0.147125   0.763122  -0.101602
    12  C   -0.014860   0.079567   0.029454   0.014616   0.012262   0.001370
    13  C    5.038958   0.037271   0.079006   0.010487   0.015855   0.001222
    14  C    0.037271   7.181343   0.003978   0.579592   0.007142   0.008059
    15  C    0.079006   0.003978   7.176430   0.007128   0.573535   0.006703
    16  C    0.010487   0.579592   0.007128   5.878230  -0.009886   0.030982
    17  C    0.015855   0.007142   0.573535  -0.009886   5.881165   0.032091
    18  H    0.001222   0.008059   0.006703   0.030982   0.032091   0.664467
    19  H    0.016857  -0.165472   0.000438   0.009628  -0.001830   0.000914
    20  H   -0.004209   0.000183  -0.180290  -0.001844   0.008962   0.001007
    21  H   -0.000032  -0.032038   0.000118  -0.038313  -0.000588  -0.001991
    22  H    0.000634   0.000339  -0.030829  -0.000692  -0.039441  -0.001770
    23  H   -0.023086  -0.002241   0.005078  -0.000816  -0.000539  -0.000081
    24  H    0.022372   0.024940  -0.000274   0.004283   0.000645  -0.000038
    25  H    0.007349  -0.006542   0.000601   0.001037  -0.000089   0.000244
    26  H    0.350471   0.005506  -0.001612  -0.000465  -0.000743  -0.000087
    27  H    0.426173  -0.001271   0.016557   0.000320   0.004369  -0.000065
    28  H    0.427431   0.000973  -0.006069   0.000425   0.000536   0.000247
    29  H   -0.001846   0.457951  -0.000172  -0.038695   0.000244  -0.000636
    30  H   -0.000178  -0.000141   0.464228   0.000246  -0.039720  -0.000660
    31  H    0.000117  -0.010478   0.000037   0.391841  -0.000023   0.000624
    32  H    0.000190   0.000040  -0.009382  -0.000026   0.391732   0.000670
              19         20         21         22         23         24
     1  N   -0.027320  -0.030967   0.001742   0.001934  -0.108157  -0.093753
     2  C   -0.072314  -0.072395  -0.019506  -0.018073   0.110126  -0.030398
     3  C    0.009572  -0.039801  -0.021238  -0.019884  -0.005538  -0.008840
     4  C   -0.038366   0.015494  -0.020498  -0.020967  -0.015144  -0.003452
     5  C   -0.004316  -0.006324  -0.130838  -0.016367   0.006524  -0.009714
     6  C   -0.007516  -0.003816  -0.016317  -0.129582   0.009766  -0.008577
     7  C   -0.022832  -0.023439  -0.015978  -0.015464  -0.004115   0.006191
     8  C    0.500003  -0.008782   0.080877   0.003361  -0.004828   0.008248
     9  C   -0.007872   0.506051   0.003093   0.079280   0.012937   0.002475
    10  C    0.103237  -0.002061   0.490058   0.008765   0.002454  -0.010719
    11  C   -0.002260   0.106766   0.009558   0.487866   0.000616  -0.000991
    12  C   -0.002962   0.017592   0.000536   0.000058   0.344392   0.432597
    13  C    0.016857  -0.004209  -0.000032   0.000634  -0.023086   0.022372
    14  C   -0.165472   0.000183  -0.032038   0.000339  -0.002241   0.024940
    15  C    0.000438  -0.180290   0.000118  -0.030829   0.005078  -0.000274
    16  C    0.009628  -0.001844  -0.038313  -0.000692  -0.000816   0.004283
    17  C   -0.001830   0.008962  -0.000588  -0.039441  -0.000539   0.000645
    18  H    0.000914   0.001007  -0.001991  -0.001770  -0.000081  -0.000038
    19  H    0.642406  -0.002334   0.001062  -0.000057   0.002137   0.009300
    20  H   -0.002334   0.650378  -0.000043   0.001010   0.005945  -0.005628
    21  H    0.001062  -0.000043   0.625648  -0.000423   0.000026  -0.000040
    22  H   -0.000057   0.001010  -0.000423   0.625551  -0.000020  -0.000010
    23  H    0.002137   0.005945   0.000026  -0.000020   0.600549  -0.039764
    24  H    0.009300  -0.005628  -0.000040  -0.000010  -0.039764   0.611315
    25  H   -0.002787   0.003115  -0.000011  -0.000035  -0.022161  -0.025584
    26  H    0.006509   0.000791  -0.000020   0.000031  -0.001852   0.005758
    27  H   -0.005302   0.012531   0.000009  -0.000051   0.005025   0.005518
    28  H    0.001175  -0.003256  -0.000031   0.000012  -0.002141  -0.006928
    29  H   -0.030528  -0.000004  -0.002372  -0.000012   0.000117  -0.000511
    30  H   -0.000002  -0.031724  -0.000013  -0.002357   0.000149   0.000007
    31  H   -0.003286  -0.000008  -0.024029  -0.000047  -0.000007  -0.000043
    32  H   -0.000008  -0.003357  -0.000050  -0.024068   0.000048  -0.000039
              25         26         27         28         29         30
     1  N   -0.054883  -0.107228  -0.106627  -0.045564   0.002719   0.003009
     2  C   -0.012300   0.098629  -0.016744  -0.022552   0.004036   0.004594
     3  C    0.030833  -0.014066  -0.003568   0.036374  -0.003042   0.001825
     4  C    0.039281  -0.007106  -0.002557   0.029543   0.001635  -0.004844
     5  C   -0.005548   0.009823  -0.007127  -0.014590   0.034084   0.000393
     6  C   -0.013710   0.005289  -0.004726  -0.008545   0.000388   0.035695
     7  C    0.008824  -0.003869   0.005531   0.007811   0.001201   0.001213
     8  C   -0.012682   0.017067  -0.003693  -0.020769  -0.131298   0.000142
     9  C   -0.029934  -0.005555   0.006924  -0.011854  -0.000062  -0.136422
    10  C    0.000249   0.000523  -0.000962  -0.010222  -0.018605   0.001107
    11  C   -0.012609   0.002279  -0.009023  -0.000079   0.001103  -0.019411
    12  C    0.430302  -0.021980   0.023233   0.008736  -0.000317  -0.002017
    13  C    0.007349   0.350471   0.426173   0.427431  -0.001846  -0.000178
    14  C   -0.006542   0.005506  -0.001271   0.000973   0.457951  -0.000141
    15  C    0.000601  -0.001612   0.016557  -0.006069  -0.000172   0.464228
    16  C    0.001037  -0.000465   0.000320   0.000425  -0.038695   0.000246
    17  C   -0.000089  -0.000743   0.004369   0.000536   0.000244  -0.039720
    18  H    0.000244  -0.000087  -0.000065   0.000247  -0.000636  -0.000660
    19  H   -0.002787   0.006509  -0.005302   0.001175  -0.030528  -0.000002
    20  H    0.003115   0.000791   0.012531  -0.003256  -0.000004  -0.031724
    21  H   -0.000011  -0.000020   0.000009  -0.000031  -0.002372  -0.000013
    22  H   -0.000035   0.000031  -0.000051   0.000012  -0.000012  -0.002357
    23  H   -0.022161  -0.001852   0.005025  -0.002141   0.000117   0.000149
    24  H   -0.025584   0.005758   0.005518  -0.006928  -0.000511   0.000007
    25  H    0.565321  -0.002352  -0.006640   0.002828  -0.000123  -0.000306
    26  H   -0.002352   0.606378  -0.044837  -0.020128   0.000103   0.000133
    27  H   -0.006640  -0.044837   0.624861  -0.027625   0.000038  -0.000705
    28  H    0.002828  -0.020128  -0.027625   0.564301  -0.000233  -0.000091
    29  H   -0.000123   0.000103   0.000038  -0.000233   0.606960  -0.000000
    30  H   -0.000306   0.000133  -0.000705  -0.000091  -0.000000   0.607801
    31  H    0.000008   0.000047  -0.000046   0.000015  -0.019660  -0.000001
    32  H   -0.000001  -0.000013  -0.000039   0.000007  -0.000001  -0.019642
              31         32
     1  N    0.000284   0.000343
     2  C    0.006573   0.006737
     3  C    0.015751   0.000267
     4  C    0.000270   0.015846
     5  C    0.040389   0.002240
     6  C    0.002245   0.042395
     7  C    0.003534   0.003709
     8  C   -0.034127   0.000042
     9  C    0.000029  -0.036642
    10  C   -0.091273  -0.001517
    11  C   -0.001459  -0.092278
    12  C    0.000174   0.000154
    13  C    0.000117   0.000190
    14  C   -0.010478   0.000040
    15  C    0.000037  -0.009382
    16  C    0.391841  -0.000026
    17  C   -0.000023   0.391732
    18  H    0.000624   0.000670
    19  H   -0.003286  -0.000008
    20  H   -0.000008  -0.003357
    21  H   -0.024029  -0.000050
    22  H   -0.000047  -0.024068
    23  H   -0.000007   0.000048
    24  H   -0.000043  -0.000039
    25  H    0.000008  -0.000001
    26  H    0.000047  -0.000013
    27  H   -0.000046  -0.000039
    28  H    0.000015   0.000007
    29  H   -0.019660  -0.000001
    30  H   -0.000001  -0.019642
    31  H    0.601025   0.000009
    32  H    0.000009   0.600988
 Mulliken charges:
               1
     1  N    0.088785
     2  C   -0.338767
     3  C    0.286563
     4  C    0.275758
     5  C    0.474462
     6  C    0.460550
     7  C   -0.141418
     8  C   -0.268168
     9  C   -0.288462
    10  C   -0.256891
    11  C   -0.272739
    12  C   -0.098157
    13  C   -0.097946
    14  C   -0.433473
    15  C   -0.424814
    16  C   -0.318404
    17  C   -0.316070
    18  H    0.035344
    19  H    0.094130
    20  H    0.090456
    21  H    0.111641
    22  H    0.111307
    23  H    0.124600
    24  H    0.111653
    25  H    0.118305
    26  H    0.122575
    27  H    0.110519
    28  H    0.120262
    29  H    0.137538
    30  H    0.137692
    31  H    0.121519
    32  H    0.121647
 Sum of Mulliken charges =  -0.00000
 Mulliken charges with hydrogens summed into heavy atoms:
               1
     1  N    0.088785
     2  C   -0.338767
     3  C    0.286563
     4  C    0.275758
     5  C    0.474462
     6  C    0.460550
     7  C   -0.106074
     8  C   -0.174038
     9  C   -0.198005
    10  C   -0.145250
    11  C   -0.161431
    12  C    0.256402
    13  C    0.255411
    14  C   -0.295935
    15  C   -0.287122
    16  C   -0.196886
    17  C   -0.194423
 Electronic spatial extent (au):  <R**2>=           3835.1394
 Charge=             -0.0000 electrons
 Dipole moment (field-independent basis, Debye):
    X=             -0.0056    Y=              0.4069    Z=              0.0091  Tot=              0.4071
 Quadrupole moment (field-independent basis, Debye-Ang):
   XX=            -91.7015   YY=            -89.6886   ZZ=           -107.3641
   XY=             -0.0355   XZ=             -0.3994   YZ=             -0.0175
[...]
 .00002977,0.00014292,0.00001771,-0.00015272,0.00004258,-0.00011719,-0.
 00000088,0.00000584,0.00005290,0.00000553,-0.00079925,-0.00018998,0.00
 115436,0.00001944,-0.00013389,0.00000510,-0.00005506,0.00007327,-0.000
 02371,0.00213080,-0.00153494,0.00202173,-0.23807738,-0.07849127,0.0589
 3708,-0.00000844,-0.00007865,-0.00004374,0.00030494,0.00041935,0.00002
 246,0.00002299,0.00002666,-0.00000339,-0.00000564,0.00003058,-0.000076
 16,0.00001763,-0.00001675,0.00001552,0.00032633,0.00000753,0.00006753,
 -0.00004725,0.00171485,0.00059485,-0.00002002,-0.00003906,-0.00000807,
 0.00002745,-0.00001575,0.00004179,-0.00066310,0.00050508,-0.00004115,0
 .00020832,0.00020175,-0.00023225,-0.00025900,0.00036148,-0.00189409,-0
 .01889892,-0.00663660,0.00775352,0.26617453,-0.01886605,-0.00982668,-0
 .00257709,-0.00232106,0.00202754,-0.00053372,0.00010479,-0.00098128,-0
 .00010388,-0.00080602,0.00007254,0.00004948,-0.00026180,0.00002219,0.0
 0010420,0.00011411,-0.00017303,-0.00008903,0.00008711,-0.00004233,-0.0
 0000012,-0.00002218,-0.00001653,-0.00003313,0.00002267,-0.00105536,0.0
 0024326,0.00004058,-0.00013958,-0.00000412,-0.00005677,0.00012479,0.00
 001199,0.00218984,-0.00060451,0.00158936,-0.07728156,-0.08016568,0.023
 71792,0.00001386,-0.00007438,0.00001377,0.00026547,0.00040900,-0.00000
 830,0.00001353,0.00001779,0.00001912,0.00001635,-0.00002625,-0.0000160
 3,0.00002348,-0.00000302,0.00000991,0.00024391,-0.00004737,-0.00005401
 ,0.00129231,-0.00159148,-0.00182329,-0.00002543,-0.00002770,0.00000468
 ,0.00002838,-0.00000236,-0.00001297,0.00014930,0.00005439,-0.00018237,
 0.00007624,-0.00008802,-0.00012554,0.00010356,0.00039337,-0.00126248,0
 .02105127,0.00877675,-0.00626136,0.09115007,0.08935378,-0.02572469,-0.
 01466152,0.00040901,-0.00235105,0.00094709,-0.00017929,0.00002393,-0.0
 0106661,0.00011992,-0.00026372,-0.00006145,-0.00006053,-0.00028896,-0.
 00010858,0.00003426,0.00005464,-0.00009383,0.00001315,-0.00001336,0.00
 003023,0.00000702,-0.00004350,-0.00014312,-0.00001166,0.00035671,-0.00
 032180,-0.00056054,0.00002876,-0.00008796,-0.00001415,0.00003650,-0.00
 003794,-0.00000854,-0.00254222,-0.00118484,0.00505095,0.05603250,0.024
 70162,-0.06619387,-0.00002974,-0.00006180,0.00004124,-0.00003116,0.000
 08389,-0.00013639,-0.00003542,-0.00001312,-0.00000235,-0.00004778,-0.0
 0001791,0.00006569,0.00000774,-0.00000968,-0.00000346,0.00010352,-0.00
 002654,-0.00008992,0.00071776,-0.00148191,-0.00023436,-0.00002708,-0.0
 0002062,-0.00000526,0.00000054,-0.00000758,-0.00001309,0.00010164,-0.0
 0001402,-0.00053655,0.00031551,0.00011931,0.00007319,0.00240786,0.0003
 7055,0.00077826,0.00644400,0.00338505,-0.00155062,-0.05768281,-0.01721
 223,0.06809311,-0.00312092,0.00930732,-0.01241788,0.00119871,0.0009038
 5,0.00013421,-0.00020346,0.00006287,0.00013078,0.00034773,-0.00010131,
 0.00019147,0.00000750,-0.00004909,0.00000882,0.00010747,0.00005756,0.0
 0006119,-0.00001614,0.00003570,-0.00002698,-0.00006075,-0.00000134,0.0
 0003190,0.00014954,0.00009314,-0.00041569,0.00000403,0.00002851,-0.000
 00512,0.00003909,-0.00007524,0.00001458,-0.00111479,-0.00155399,-0.000
 69247,-0.04872906,0.01415137,-0.02123141,-0.00003506,-0.00003769,0.000
 02675,-0.00015527,0.00003967,-0.00009508,-0.00003757,-0.00000556,-0.00
 001478,-0.00007039,0.00001296,0.00001637,-0.00000497,-0.00000569,-0.00
 000744,0.00002171,0.00003794,-0.00007080,0.00015201,-0.00072719,0.0001
 1199,0.00000394,0.00000124,-0.00000131,0.00000141,-0.00000909,-0.00000
 015,-0.00008730,-0.00017439,0.00020297,0.00037565,0.00020107,-0.000744
 29,0.00021365,-0.00005459,-0.00041270,-0.00186235,0.01163819,-0.015909
 86,0.00380386,-0.01736621,0.02249358,0.04908250,-0.00251181,0.01053111
 ,-0.01770572,0.00005878,0.00086189,-0.00086343,-0.00016583,0.00035037,
 -0.00003383,0.00010441,-0.00013514,-0.00034613,-0.00001145,-0.00000205
 ,0.00002103,0.00000798,0.00003177,0.00010543,0.00001831,0.00004792,-0.
 00005262,-0.00000286,0.00006278,-0.00000769,0.00001287,0.00004337,-0.0
 0005018,0.00000737,-0.00000107,0.00003063,0.00003473,-0.00001667,-0.00
 001655,-0.00134256,-0.00187900,-0.00217057,0.01757782,-0.15463251,0.13
 832628,0.00004647,-0.00004687,-0.00002372,-0.00008304,0.00001570,-0.00
 001332,-0.00001264,0.00000497,-0.00001338,-0.00001091,-0.00004537,0.00
 000719,0.00000166,0.00000643,0.00000535,0.00002206,-0.00004659,0.00002
 898,-0.00004584,-0.00004794,0.00010992,0.00000551,0.00001001,0.0000069
 2,-0.00000140,0.00000833,0.00000682,-0.00025062,0.00027446,-0.00007735
 ,-0.00006916,0.00070306,-0.00087236,0.00010244,-0.00001331,-0.00007607
 ,0.00057763,-0.01275605,0.01751103,0.00233156,-0.00639925,0.00699526,-
 0.01639353,0.16306428,-0.00307262,0.01470525,-0.02409763,0.00030893,0.
 00272556,0.00053421,-0.00047712,-0.00049792,-0.00002829,0.00012740,-0.
 00033673,0.00023611,-0.00022457,0.00017163,-0.00012667,0.00000465,-0.0
 0039506,0.00006325,0.00022331,0.00006162,-0.00002863,0.00005636,0.0000
 5380,0.00004160,0.00026521,0.00006567,-0.00005066,0.00005729,-0.000065
 01,0.00001945,-0.00000750,0.00000260,-0.00001185,-0.00324828,-0.004116
 88,-0.00208703,-0.02322035,0.12829766,-0.21266531,0.00000475,-0.000129
 57,-0.00000853,0.00004702,-0.00004557,0.00006959,-0.00001175,0.0000693
 0,0.00000255,0.00003021,-0.00001325,-0.00000980,0.00001179,0.00000700,
 0.00000501,0.00010665,-0.00001368,-0.00006010,-0.00013934,0.00013908,-
 0.00016744,-0.00000637,0.00000083,-0.00000106,0.00000463,0.00000643,0.
 00000681,0.00003300,0.00005941,0.00029352,0.00003281,0.00065817,-0.001
 39392,0.00015568,0.00000357,0.00018198,0.00069301,-0.00512325,0.008103
 62,-0.00035986,0.00456561,-0.00508937,0.02861365,-0.14086063,0.2362940
 2,0.00004238,-0.00026004,0.00000904,-0.00029914,0.00146945,0.00001745,
 -0.00253428,-0.00387283,-0.00067012,-0.00048626,-0.00028796,0.00002939
 ,0.00001507,-0.00052826,0.00002104,-0.00008213,-0.00012797,0.00000454,
 0.00026244,0.00004724,0.00002799,-0.01871558,0.01496379,-0.00042844,0.
 00002829,0.00014950,-0.00000956,0.00152732,-0.00041257,-0.00009344,0.0
 0008866,-0.00003008,-0.00000467,-0.00003225,0.00005749,-0.00015474,0.0
 0002235,0.00004606,0.00011698,-0.27748203,0.12039009,-0.00572068,-0.00
 011757,0.00002734,-0.00000317,0.00320580,-0.00272021,-0.00008851,-0.00
 004486,-0.00009375,0.00000713,-0.00002120,0.00003604,-0.00000487,0.001
 03800,-0.00028904,0.00029187,-0.00000499,-0.00001805,0.00000184,0.0000
 0723,-0.00014492,-0.00000301,0.00000135,0.00001178,0.00000014,-0.00000
 632,-0.00005890,0.00000325,-0.00000832,0.00003672,-0.00000185,-0.00000
 780,-0.00002065,0.00003558,0.00000732,-0.00005078,-0.00002302,-0.00002
 338,-0.00002049,-0.00002268,-0.00000523,0.00001129,0.00001016,0.293164
 75,0.00013430,-0.00004444,-0.00001147,-0.00000797,0.00078324,0.0000060
 7,-0.00344607,-0.00144811,-0.00055719,-0.00040477,0.00004664,0.0000412
 6,-0.00106332,-0.00033956,-0.00004046,-0.00023648,-0.00021211,-0.00001
 128,0.00048092,0.00010252,0.00003930,-0.01594753,0.01120484,-0.0004291
 2,0.00008311,0.00006215,0.00000275,-0.00113513,-0.00560680,-0.00035541
 ,0.00014438,0.00000895,0.00000038,-0.00001892,0.00000706,-0.00000229,-
 0.00000706,-0.00000207,-0.00000185,0.12121665,-0.12331572,0.00198999,-
 0.00006470,0.00011947,-0.00000688,0.02798164,-0.00914226,0.00069568,-0
 .00005960,-0.00011855,0.00000562,-0.00006500,0.00003707,-0.00000183,0.
 00053263,0.00077617,0.00027362,0.00000633,0.00000163,-0.00000144,0.001
 31953,-0.00064073,0.00008110,-0.00000811,0.00000310,0.00000045,-0.0000
 1137,-0.00001231,0.00000102,-0.00000328,0.00000897,0.00000639,0.000007
 65,-0.00000736,0.00000837,-0.00000804,-0.00000343,-0.00000758,0.000003
 24,-0.00000229,-0.00000178,0.00000276,-0.00000176,-0.00000127,-0.12886
 329,0.12670175,-0.00005540,0.00021744,0.00044499,0.00004291,-0.0002386
 2,0.00005546,-0.00051255,-0.00049697,0.00954584,-0.00012259,0.00007994
 ,-0.00113519,-0.00017044,-0.00001287,-0.00063060,-0.00009559,-0.000083
 82,0.00011473,0.00021747,0.00000398,-0.00066176,-0.00137632,0.00110588
 ,0.00485992,0.00007551,0.00000058,-0.00005390,-0.00004566,-0.00035142,
 0.00434106,0.00004979,-0.00001154,0.00009318,0.00016854,-0.00009352,0.
 00005681,-0.00015801,0.00004970,0.00003392,-0.00576356,0.00152830,-0.0
 3755047,-0.00003040,0.00006956,0.00009277,0.00087481,-0.00025071,0.002
 96961,-0.00003158,-0.00005487,-0.00002806,-0.00000573,0.00000414,0.000
 05446,0.00025647,0.00023361,-0.00588258,-0.00000616,-0.00000293,-0.000
 01040,0.00005043,-0.00002122,0.00012492,0.00000048,0.00000054,0.000001
 94,0.00000678,-0.00001051,0.00002576,-0.00002256,-0.00001361,-0.000009
 25,-0.00001115,0.00000869,-0.00003681,0.00001489,0.00001581,0.00002847
 ,0.00001782,-0.00001912,-0.00001097,-0.00000912,0.00000903,-0.00000117
 ,0.00653488,-0.00180772,0.02545887,0.00005962,0.00026556,0.00002768,-0
 .00030235,-0.00140329,-0.00002058,-0.00048457,0.00026759,-0.00002730,-
 0.00253144,0.00389148,0.00009615,-0.00009764,0.00013269,0.00001135,-0.
 00002193,0.00051916,-0.00002384,0.00028397,-0.00003729,-0.00000370,0.0
 0003549,-0.00014768,-0.00001509,-0.01866530,-0.01554877,0.00115957,0.0
 0009286,0.00003247,0.00000199,0.00149061,0.00055645,0.00008907,-0.0000
 9149,-0.00004513,0.00018651,-0.00015225,-0.00009132,-0.00011432,-0.000
 11458,-0.00003461,-0.00000772,-0.27344255,-0.12286838,0.00990380,-0.00
 005007,0.00009755,0.00000268,0.00373180,0.00291678,-0.00016928,-0.0000
 2042,-0.00003512,-0.00000341,-0.00000681,0.00001626,0.00000127,0.00098
 223,0.00024462,-0.00012138,0.00000164,-0.00001158,0.00000038,0.0000315
 5,0.00016229,0.00001409,-0.00000252,0.00003077,-0.00002069,0.00001571,
 -0.00000726,0.00000340,0.00006727,-0.00000738,-0.00002572,0.00001224,0
 .00003779,0.00001359,0.00005649,0.00004924,-0.00001825,-0.00000616,-0.
 00001792,-0.00001534,-0.00002297,-0.00000490,0.00000057,0.28867545,-0.
 00004553,-0.00007350,-0.00001820,-0.00003411,0.00078003,0.00000884,0.0
 0040153,0.00005558,-0.00002266,0.00341677,-0.00139545,0.00038638,0.000
 23741,-0.00020125,0.00000667,0.00105316,-0.00030458,0.00002621,-0.0004
 7692,0.00008779,-0.00004580,-0.00009195,0.00005714,0.00000634,0.015547
 56,0.01105621,-0.00059310,-0.00014383,0.00000542,-0.00000507,0.0012656
 5,-0.00561319,0.00043409,0.00003135,0.00000274,-0.00003936,0.00006820,
 0.00005731,0.00002139,0.00006067,0.00012038,0.00000737,-0.12397682,-0.
 12763114,0.00667571,0.00006260,-0.00011601,0.00000055,-0.02771346,-0.0
 0941611,0.00107341,0.00006308,0.00004036,0.00000177,-0.00000529,0.0000
 0083,-0.00000122,-0.00046366,0.00083667,-0.00033370,0.00000785,0.00000
 289,-0.00000006,-0.00130918,-0.00065911,-0.00006389,-0.00000372,-0.000
 00184,0.00000542,-0.00001301,-0.00000089,0.00000489,-0.00001516,0.0000
 0491,0.00001412,-0.00002396,-0.00000826,0.00000633,-0.00003580,-0.0000
 2495,0.00000843,-0.00000692,-0.00000151,0.00000411,0.00000453,0.000007
 09,0.00000096,0.13159817,0.13130142,0.00009245,-0.00021933,0.00024043,
 0.00014135,0.00029629,0.00017721,-0.00014437,-0.00012478,-0.00096734,-
 0.00024022,0.00013039,0.00934619,-0.00015474,0.00013314,0.00009829,-0.
 00035181,0.00000871,-0.00065101,0.00027919,0.00002917,-0.00061891,0.00
 009176,-0.00001299,-0.00005988,0.00022786,-0.00007943,0.00493733,0.000
 07258,0.00001004,0.00007821,0.00014685,0.00051374,0.00425923,-0.000072
 70,-0.00003605,-0.00002852,0.00007687,-0.00000376,0.00007771,-0.000045
 14,-0.00008717,0.00007391,0.00973872,0.00729432,-0.03779644,-0.0000419
 0,0.00007562,-0.00002328,0.00116741,-0.00001700,0.00300002,-0.00000520
 ,-0.00000277,0.00005144,-0.00000230,-0.00000103,-0.00000812,-0.0001626
 0,-0.00038848,-0.00581094,-0.00000042,-0.00000176,0.00000315,0.0000984
 1,0.00002993,0.00011472,0.00000497,-0.00001035,0.00000226,-0.00001342,
 0.00000044,0.00000238,-0.00002443,0.00000173,0.00000384,0.00000883,0.0
 0001413,0.00001177,0.00001614,0.00000066,0.00000540,0.00000900,0.00000
 904,-0.00001377,-0.00000016,-0.00000188,0.00001396,-0.01088240,-0.0073
 9936,0.02577364,-0.00005728,-0.00014839,0.00001097,0.00032097,0.000099
 88,0.00002748,-0.00010939,0.00048314,0.00002011,-0.00009333,0.00011771
 ,0.00001279,-0.00250125,0.00385718,-0.00051240,-0.00049370,0.00021812,
 0.00001518,-0.00041501,-0.00110938,-0.00004039,0.00146309,0.00066432,-
 0.00011229,0.00009405,0.00001755,-0.00000375,-0.01834807,-0.01638855,-
 0.00152619,0.00005471,-0.00015329,0.00000858,-0.00001320,0.00001960,-0
 .00007934,0.00005072,0.00001716,0.00006222,0.00407028,0.00308466,0.000
 14351,-0.00004772,0.00010709,-0.00000341,-0.26999296,-0.12445120,-0.01
 453333,-0.00012661,-0.00004549,-0.00000372,-0.00000697,0.00007112,-0.0
 0001124,0.00004560,0.00017190,0.00000865,-0.00000318,-0.00001153,0.000
 00217,0.00093084,0.00032085,0.00033236,0.00000498,0.00001884,0.0000012
 6,0.00000271,-0.00002231,0.00000538,0.00000377,0.00001096,-0.00000955,
 -0.00001850,-0.00000786,0.00001716,0.00000336,-0.00002383,-0.00001206,
 -0.00002105,-0.00001030,-0.00000578,-0.00000160,0.00000947,0.00000652,
 0.00049686,-0.00056115,0.00010688,-0.00001307,-0.00000389,-0.00000021,
 0.28474423,-0.00034962,0.00000998,0.00000806,-0.00039494,-0.00005031,-
 0.00000537,0.00112310,-0.00027710,0.00006054,0.00021871,-0.00022383,-0
 .00000542,0.00332055,-0.00129323,-0.00008559,0.00039630,0.00007574,0.0
 0003361,-0.00001222,0.00061264,0.00001175,0.00140680,-0.00563397,-0.00
 027521,-0.00014060,0.00000456,0.00000356,0.01490070,0.01132954,0.00088
 676,-0.00009291,0.00005329,-0.00000185,0.00007095,0.00006481,-0.000095
 17,0.00004943,0.00006393,0.00008964,-0.02753362,-0.00947254,-0.0015905
 2,0.00006156,-0.00011342,0.00000017,-0.12554878,-0.13098940,-0.0085834
 6,0.00006041,0.00012107,-0.00000479,-0.00000682,-0.00001695,-0.0000051
 0,-0.00116388,-0.00050117,-0.00005409,0.00001149,0.00000191,-0.0000002
 6,-0.00055553,0.00076654,0.00012657,-0.00000460,0.00000369,-0.00000108
 ,0.00001463,-0.00000552,0.00000008,0.00002025,0.00000049,-0.00002260,-
 0.00003276,-0.00000705,0.00000498,0.00001519,-0.00001110,-0.00000544,-
 0.00003184,-0.00002090,-0.00000772,-0.00000019,0.00000200,-0.00000606,
 0.00054477,0.00102956,0.00014334,-0.00000341,-0.00000292,0.00000183,0.
 13365260,0.13447241,0.00006068,-0.00002651,-0.00003061,0.00000254,0.00
 006248,-0.00061597,0.00003781,0.00004851,-0.00052747,-0.00001629,-0.00
 001490,0.00015568,-0.00041455,0.00003427,0.00932623,0.00003613,-0.0000
 1285,-0.00092516,-0.00002042,-0.00001832,0.00016465,-0.00010697,-0.000
 30261,0.00436933,0.00000915,0.00001014,0.00006408,-0.00088352,-0.00064
 000,0.00482445,-0.00000367,-0.00000031,-0.00004056,0.00000149,-0.00001
 993,0.00002175,-0.00001171,0.00001480,0.00000981,-0.00067893,-0.000224
 33,0.00286679,-0.00000597,-0.00000585,-0.00001139,-0.01446298,-0.00850
 841,-0.03843825,0.00000243,0.00000274,0.00007960,-0.00001254,0.0000028
 3,0.00024272,-0.00003188,-0.00002601,0.00007756,-0.00000147,-0.0000000
 6,0.00000004,0.00031441,0.00015956,-0.00560484,0.00000088,-0.00000045,
 -0.00001852,-0.00000316,0.00000170,0.00000098,-0.00000315,-0.00000368,
 -0.00000824,0.00000076,0.00000433,-0.00000865,0.00000645,-0.00000647,0
 .00000619,-0.00000024,-0.00000055,-0.00000539,-0.00000323,0.00000357,-
 0.00000285,0.00011754,0.00008712,-0.00229218,-0.00000104,-0.00000069,-
 0.00001070,0.01607238,0.00937927,0.02632141,-0.00002857,0.00014695,-0.
 00000585,0.00032438,-0.00010032,0.00001206,-0.00008974,-0.00012367,0.0
 0001448,-0.00009960,-0.00045679,-0.00000664,-0.00047462,-0.00022842,-0
 .00003092,-0.00233224,-0.00389344,0.00001879,-0.00044316,0.00109505,-0
 .00001454,0.00009295,-0.00001947,-0.00000427,0.00148971,-0.00055757,0.
 00000894,0.00004251,0.00015097,0.00000514,-0.01846460,0.01589770,-0.00
 058334,0.00001360,-0.00001694,0.00007314,-0.00004482,-0.00001210,-0.00
 005866,-0.00004383,-0.00010326,0.00000036,0.00368250,-0.00287675,0.000
 12715,-0.00012184,0.00003857,-0.00000771,-0.27521437,0.12252424,-0.005
 10530,-0.00000586,-0.00007199,0.00000369,-0.00000148,0.00001179,-0.000
 00053,0.00002306,-0.00015594,0.00000371,0.00000453,-0.00001868,0.00000
 029,0.00094711,-0.00031437,0.00005298,-0.00000460,0.00002250,-0.000007
 35,-0.00000304,-0.00000856,0.00000496,0.00001331,0.00000252,-0.0000111
 2,-0.00000616,0.00002442,0.00001279,0.00001225,0.00000181,0.00000301,0
 .00000222,-0.00001078,-0.00000993,-0.00001353,0.00000354,-0.00000142,0
 .00048919,0.00054468,-0.00003035,-0.00002327,0.00000429,-0.00000094,0.
 29027801,0.00007073,0.00002343,-0.00000161,0.00039343,0.00001144,-0.00
 003588,-0.00020815,-0.00022356,-0.00000785,-0.00107102,-0.00027450,0.0
 0003010,-0.00040132,0.00005611,-0.00005536,-0.00331312,-0.00141515,0.0
 0025865,-0.00000218,0.00063137,0.00000560,0.00014263,0.00000819,0.0000
 0871,-0.00128369,-0.00553888,0.00051094,0.00009694,0.00005827,0.000005
 21,-0.01540266,0.01139418,-0.00023487,-0.00006539,0.00001049,-0.000005
 03,-0.00005671,-0.00005842,0.00002097,-0.00006267,-0.00011233,-0.00000
 365,0.02777933,-0.00917905,0.00040079,-0.00006412,0.00012124,0.0000018
 2,0.12357132,-0.12689519,0.00370076,0.00000708,-0.00001971,0.00001063,
 -0.00001391,0.00000290,0.00000031,0.00124011,-0.00058814,0.00000645,0.
 00000468,0.00000324,0.00000014,0.00054541,0.00077012,-0.00019180,0.000
 02011,-0.00000861,-0.00001023,0.00001776,0.00000332,0.00000360,0.00001
 302,0.00001986,-0.00003413,0.00006047,0.00000166,-0.00000470,0.0000502
 1,0.00006081,0.00000110,-0.00001213,0.00000664,0.00000756,0.00000369,-
 0.00000269,-0.00000203,-0.00055485,0.00103393,-0.00016304,-0.00000502,
 0.00000727,0.00000061,-0.13149998,0.13009175,-0.00002901,0.00002292,0.
 00002635,-0.00000218,-0.00002421,-0.00065719,0.00001113,0.00001303,0.0
 0014681,0.00008560,0.00009730,-0.00061949,0.00005088,0.00001887,-0.000
 89735,0.00007677,0.00012416,0.00939857,0.00008823,-0.00006022,0.000161
 11,-0.00001245,-0.00000207,0.00004856,0.00004231,0.00047682,0.00428486
 ,0.00000193,-0.00000037,-0.00003891,0.00012205,-0.00027593,0.00485176,
 0.00001165,-0.00003935,0.00002629,-0.00000537,0.00005008,0.00003361,0.
 00000416,0.00000369,-0.00000307,-0.00102585,0.00037331,0.00282659,-0.0
 0000051,-0.00000446,0.00007391,-0.00489704,0.00376106,-0.03745770,-0.0
 0001479,-0.00000143,0.00024483,0.00000255,-0.00000099,-0.00000092,-0.0
 0004540,0.00001660,0.00009852,0.00000036,0.00000037,-0.00001351,0.0000
 3335,-0.00015327,-0.00564271,0.00000477,0.00000101,0.00000446,-0.00000
 373,-0.00000292,-0.00000511,0.00001701,0.00000411,-0.00000725,-0.00000
 841,-0.00000078,-0.00000261,-0.00001456,-0.00001062,0.00001510,0.00001
 102,0.00000706,-0.00000762,0.00000010,0.00000032,-0.00001332,-0.000042
 02,-0.00016988,-0.00228221,0.00000006,-0.00000044,0.00000951,0.0055373
 9,-0.00422377,0.02539814\\-0.00000638,0.00000708,0.00000144,0.00000747
 ,-0.00000734,-0.00000127,-0.00000284,0.00000051,0.00000026,-0.00000436
 ,0.00000735,-0.00000088,-0.00000645,0.00000059,-0.00000017,-0.00000383
 ,-0.00000264,-0.00000071,0.00000436,-0.00000009,0.00000132,0.00000346,
 0.00000122,0.00000071,0.00000120,-0.00000141,0.00000094,0.00000448,0.0
 0000088,0.00000084,0.00000145,-0.00000056,-0.00000006,0.00000487,-0.00
 000088,-0.00000228,0.00000182,-0.00000164,-0.00000415,-0.00000161,-0.0
 0000387,-0.00000006,-0.00000106,0.00000012,-0.00000031,-0.00000208,0.0
 0000585,0.00000087,-0.00000085,-0.00000319,-0.00000014,-0.00000091,-0.
 00000047,-0.00000007,-0.00000043,0.00000069,0.00000033,0.00000209,-0.0
 0000152,0.00000197,-0.00000128,0.00000040,0.00000029,-0.00000160,-0.00
 000099,0.00000013,0.,-0.00000095,0.00000118,0.00000083,-0.00000101,0.0
 0000282,-0.00000131,0.00000123,-0.00000124,0.00000128,0.00000012,-0.00
 000095,0.00000282,0.00000024,0.00000051,-0.00000041,-0.00000067,-0.000
 00188,0.00000039,0.00000172,0.00000086,-0.00000016,-0.00000077,-0.0000
 0024,-0.00000035,0.00000084,0.00000021,-0.00000061,-0.00000085,-0.0000
 0027\\\@
 The archive entry for this job was punched.


 THE WORLD IS NOT A HAMBURGER - YOU CAN'T HAVE IT YOUR WAY.
 Job cpu time:       0 days  8 hours 43 minutes 16.8 seconds.
 Elapsed time:       0 days  0 hours 20 minutes 20.2 seconds.
 File lengths (MBytes):  RWF=    615 Int=      0 D2E=      0 Chk=     20 Scr=      1
 Normal termination of Gaussian 16 at Wed Dec  6 08:58:53 2023.
