 Entering Gaussian System, Link 0=g16
 Input=/home/exlonk/in_progress/3578.inp
 Output=/home/exlonk/in_progress/3578.log
 Initial command:
 /opt/gaussian/g16-c01/g16/l1.exe "/lustre/tmp/slurm/2182805/Gau-1997528.inp" -scrdir="/lustre/tmp/slurm/2182805/"
 Default CPUs for threads: 0-4,7-9,13-15,19-20,24-28,31-32,36-38,42-44
 Default is to use a total of  26 processors:
                               26 via shared-memory
                                1 via Linda
 Entering Link 1 = /opt/gaussian/g16-c01/g16/l1.exe PID=   1997529.
  
 Copyright (c) 1988-2019, Gaussian, Inc.  All Rights Reserved.
  
 This is part of the Gaussian(R) 16 program.  It is based on
 the Gaussian(R) 09 system (copyright 2009, Gaussian, Inc.),
 the Gaussian(R) 03 system (copyright 2003, Gaussian, Inc.),
 the Gaussian(R) 98 system (copyright 1998, Gaussian, Inc.),
 the Gaussian(R) 94 system (copyright 1995, Gaussian, Inc.),
 the Gaussian 92(TM) system (copyright 1992, Gaussian, Inc.),
 the Gaussian 90(TM) system (copyright 1990, Gaussian, Inc.),
 the Gaussian 88(TM) system (copyright 1988, Gaussian, Inc.),
 the Gaussian 86(TM) system (copyright 1986, Carnegie Mellon
 University), and the Gaussian 82(TM) system (copyright 1983,
 Carnegie Mellon University). Gaussian is a federally registered
 trademark of Gaussian, Inc.
  
 This software contains proprietary and confidential information,
 including trade secrets, belonging to Gaussian, Inc.
  
 This software is provided under written license and may be
 used, copied, transmitted, or stored only in accord with that
 written license.
  
 The following legend is applicable only to US Government
 contracts under FAR:
  
                    RESTRICTED RIGHTS LEGEND
  
 Use, reproduction and disclosure by the US Government is
 subject to restrictions as set forth in subparagraphs (a)
 and (c) of the Commercial Computer Software - Restricted
 Rights clause in FAR 52.227-19.
  
 Gaussian, Inc.
 340 Quinnipiac St., Bldg. 40, Wallingford CT 06492
  
  
 ---------------------------------------------------------------
 Warning -- This program may not be used in any manner that
 competes with the business of Gaussian, Inc. or will provide
 assistance to any competitor of Gaussian, Inc.  The licensee
 of this program is prohibited from giving any competitor of
 Gaussian, Inc. access to this program.  By using this program,
 the user acknowledges that Gaussian, Inc. is engaged in the
 business of creating and licensing software in the field of
 computational chemistry and represents and warrants to the
 licensee that it is not a competitor of Gaussian, Inc. and that
 it will not use this program in any manner prohibited above.
 ---------------------------------------------------------------
  

 Cite this work as:
 Gaussian 16, Revision C.01,
 M. J. Frisch, G. W. Trucks, H. B. Schlegel, G. E. Scuseria, 
 M. A. Robb, J. R. Cheeseman, G. Scalmani, V. Barone, 
 G. A. Petersson, H. Nakatsuji, X. Li, M. Caricato, A. V. Marenich, 
 J. Bloino, B. G. Janesko, R. Gomperts, B. Mennucci, H. P. Hratchian, 
 J. V. Ortiz, A. F. Izmaylov, J. L. Sonnenberg, D. Williams-Young, 
 F. Ding, F. Lipparini, F. Egidi, J. Goings, B. Peng, A. Petrone, 
 T. Henderson, D. Ranasinghe, V. G. Zakrzewski, J. Gao, N. Rega, 
 G. Zheng, W. Liang, M. Hada, M. Ehara, K. Toyota, R. Fukuda, 
 J. Hasegawa, M. Ishida, T. Nakajima, Y. Honda, O. Kitao, H. Nakai, 
 T. Vreven, K. Throssell, J. A. Montgomery, Jr., J. E. Peralta, 
 F. Ogliaro, M. J. Bearpark, J. J. Heyd, E. N. Brothers, K. N. Kudin, 
 V. N. Staroverov, T. A. Keith, R. Kobayashi, J. Normand, 
 K. Raghavachari, A. P. Rendell, J. C. Burant, S. S. Iyengar, 
 J. Tomasi, M. Cossi, J. M. Millam, M. Klene, C. Adamo, R. Cammi, 
 J. W. Ochterski, R. L. Martin, K. Morokuma, O. Farkas, 
 J. B. Foresman, and D. J. Fox, Gaussian, Inc., Wallingford CT, 2019.
 
 ******************************************
 Gaussian 16:  EM64L-G16RevC.01  3-Jul-2019
                 5-Dec-2023 
 ******************************************
 %nproc=26
 Will use up to   26 processors via shared memory.
 %mem=16GB
 %chk=/home/exlonk/in_progress/3578.chk
 ------------------------------
 #p MN15/6-311++G(d,p) opt freq
 ------------------------------
 1/18=20,19=15,26=3,38=1/1,3;
 2/9=110,12=2,17=6,18=5,40=1/2;
 3/5=4,6=6,7=1111,11=2,25=1,30=1,71=1,74=-73/1,2,3;
 4//1;
 5/5=2,38=5/2;
 6/7=2,8=2,9=2,10=2,28=1/1;
 7//1,2,3,16;
 1/18=20,19=15,26=3/3(2);
 2/9=110/2;
 99//99;
 2/9=110/2;
 3/5=4,6=6,7=1111,11=2,25=1,30=1,71=1,74=-73/1,2,3;
 4/5=5,16=3,69=1/1;
 5/5=2,38=5/2;
 7//1,2,3,16;
 1/18=20,19=15,26=3/3(-5);
 2/9=110/2;
 6/7=2,8=2,9=2,10=2,19=2,28=1/1;
 99/9=1/99;
 Leave Link    1 at Tue Dec  5 10:00:36 2023, MaxMem=  2147483648 cpu:              12.2 elap:               0.6
 (Enter /opt/gaussian/g16-c01/g16/l101.exe)
 ---------------
 name file: 3578
 ---------------
 Symbolic Z-matrix:
 Charge =  0 Multiplicity = 1
 O                    -1.4173    2.4292   -0.0052 
 N                     4.1785   -0.5071    0.0009 
 C                     2.834    -0.0811   -0.0001 
 C                     0.2134    0.7524   -0.0016 
 C                     2.1689    0.1272   -1.2084 
 C                     2.1697    0.1334    1.2074 
 C                     0.8397    0.5501   -1.2092 
 C                     0.8405    0.5561    1.2068 
 C                    -1.2102    1.2066   -0.0023 
 C                    -2.3259    0.2739   -0.0002 
 C                     4.8783   -0.7313   -1.2484 
 C                     4.8822   -0.7128    1.2512 
 C                    -2.0866   -1.1002    0.0027 
 C                    -3.6356    0.7537   -0.0014 
 C                    -3.1569   -1.9946    0.0043 
 C                    -4.706    -0.1406    0.0004 
 C                    -4.4666   -1.5149    0.0032 
 H                     2.6414   -0.025    -2.1737 
 H                     2.6424   -0.0143    2.1734 
 H                     0.3251    0.7119   -2.1515 
 H                     0.3264    0.7227    2.1485 
 H                     5.9092   -1.0628   -1.0812 
 H                     4.9389    0.1897   -1.8389 
 H                     4.3921   -1.5156   -1.8395 
 H                     5.9152   -1.0386    1.0856 
 H                     4.4026   -1.4939    1.8516 
 H                     4.9377    0.2149    1.8316 
 H                    -1.084    -1.5168    0.0037 
 H                    -3.8494    1.8192   -0.0037 
 H                    -2.9711   -3.0648    0.0065 
 H                    -5.726     0.2326   -0.0006 
 H                    -5.3      -2.2113    0.0045 
 
 ITRead=  0  0  0  0  0  0  0  0  0  0  0  0  0  0  0  0  0  0  0  0
 ITRead=  0  0  0  0  0  0  0  0  0  0  0  0
 MicOpt= -1 -1 -1 -1 -1 -1 -1 -1 -1 -1 -1 -1 -1 -1 -1 -1 -1 -1 -1 -1
 MicOpt= -1 -1 -1 -1 -1 -1 -1 -1 -1 -1 -1 -1
 NAtoms=     32 NQM=       32 NQMF=       0 NMMI=      0 NMMIF=      0
                NMic=       0 NMicF=      0.
                    Isotopes and Nuclear Properties:
 (Nuclear quadrupole moments (NQMom) in fm**2, nuclear magnetic moments (NMagM)
  in nuclear magnetons)

  Atom         1           2           3           4           5           6           7           8           9          10
 IAtWgt=          16          14          12          12          12          12          12          12          12          12
 AtmWgt=  15.9949146  14.0030740  12.0000000  12.0000000  12.0000000  12.0000000  12.0000000  12.0000000  12.0000000  12.0000000
 NucSpn=           0           2           0           0           0           0           0           0           0           0
 AtZEff=  -0.0000000  -0.0000000  -0.0000000  -0.0000000  -0.0000000  -0.0000000  -0.0000000  -0.0000000  -0.0000000  -0.0000000
 NQMom=    0.0000000   2.0440000   0.0000000   0.0000000   0.0000000   0.0000000   0.0000000   0.0000000   0.0000000   0.0000000
 NMagM=    0.0000000   0.4037610   0.0000000   0.0000000   0.0000000   0.0000000   0.0000000   0.0000000   0.0000000   0.0000000
 AtZNuc=   8.0000000   7.0000000   6.0000000   6.0000000   6.0000000   6.0000000   6.0000000   6.0000000   6.0000000   6.0000000

  Atom        11          12          13          14          15          16          17          18          19          20
 IAtWgt=          12          12          12          12          12          12          12           1           1           1
 AtmWgt=  12.0000000  12.0000000  12.0000000  12.0000000  12.0000000  12.0000000  12.0000000   1.0078250   1.0078250   1.0078250
 NucSpn=           0           0           0           0           0           0           0           1           1           1
 AtZEff=  -0.0000000  -0.0000000  -0.0000000  -0.0000000  -0.0000000  -0.0000000  -0.0000000  -0.0000000  -0.0000000  -0.0000000
 NQMom=    0.0000000   0.0000000   0.0000000   0.0000000   0.0000000   0.0000000   0.0000000   0.0000000   0.0000000   0.0000000
 NMagM=    0.0000000   0.0000000   0.0000000   0.0000000   0.0000000   0.0000000   0.0000000   2.7928460   2.7928460   2.7928460
 AtZNuc=   6.0000000   6.0000000   6.0000000   6.0000000   6.0000000   6.0000000   6.0000000   1.0000000   1.0000000   1.0000000

  Atom        21          22          23          24          25          26          27          28          29          30
 IAtWgt=           1           1           1           1           1           1           1           1           1           1
 AtmWgt=   1.0078250   1.0078250   1.0078250   1.0078250   1.0078250   1.0078250   1.0078250   1.0078250   1.0078250   1.0078250
 NucSpn=           1           1           1           1           1           1           1           1           1           1
 AtZEff=  -0.0000000  -0.0000000  -0.0000000  -0.0000000  -0.0000000  -0.0000000  -0.0000000  -0.0000000  -0.0000000  -0.0000000
 NQMom=    0.0000000   0.0000000   0.0000000   0.0000000   0.0000000   0.0000000   0.0000000   0.0000000   0.0000000   0.0000000
 NMagM=    2.7928460   2.7928460   2.7928460   2.7928460   2.7928460   2.7928460   2.7928460   2.7928460   2.7928460   2.7928460
 AtZNuc=   1.0000000   1.0000000   1.0000000   1.0000000   1.0000000   1.0000000   1.0000000   1.0000000   1.0000000   1.0000000

  Atom        31          32
 IAtWgt=           1           1
 AtmWgt=   1.0078250   1.0078250
 NucSpn=           1           1
 AtZEff=  -0.0000000  -0.0000000
 NQMom=    0.0000000   0.0000000
 NMagM=    2.7928460   2.7928460
 AtZNuc=   1.0000000   1.0000000
 Leave Link  101 at Tue Dec  5 10:00:36 2023, MaxMem=  2147483648 cpu:               9.0 elap:               0.5
 (Enter /opt/gaussian/g16-c01/g16/l103.exe)

 GradGradGradGradGradGradGradGradGradGradGradGradGradGradGradGradGradGrad
 Berny optimization.
 Initialization pass.
                           ----------------------------
                           !    Initial Parameters    !
                           ! (Angstroms and Degrees)  !
 --------------------------                            --------------------------
 ! Name  Definition              Value          Derivative Info.                !
 --------------------------------------------------------------------------------
 ! R1    R(1,9)                  1.24           estimate D2E/DX2                !
 ! R2    R(2,3)                  1.4104         estimate D2E/DX2                !
 ! R3    R(2,11)                 1.4494         estimate D2E/DX2                !
 ! R4    R(2,12)                 1.4494         estimate D2E/DX2                !
 ! R5    R(3,5)                  1.3949         estimate D2E/DX2                !
 ! R6    R(3,6)                  1.3948         estimate D2E/DX2                !
 ! R7    R(4,7)                  1.3753         estimate D2E/DX2                !
 ! R8    R(4,8)                  1.3755         estimate D2E/DX2                !
 ! R9    R(4,9)                  1.4943         estimate D2E/DX2                !
 ! R10   R(5,7)                  1.3949         estimate D2E/DX2                !
 ! R11   R(5,18)                 1.0855         estimate D2E/DX2                !
 ! R12   R(6,8)                  1.3948         estimate D2E/DX2                !
 ! R13   R(6,19)                 1.0855         estimate D2E/DX2                !
 ! R14   R(7,20)                 1.0858         estimate D2E/DX2                !
 ! R15   R(8,21)                 1.0858         estimate D2E/DX2                !
 ! R16   R(9,10)                 1.4542         estimate D2E/DX2                !
 ! R17   R(10,13)                1.3948         estimate D2E/DX2                !
 ! R18   R(10,14)                1.3948         estimate D2E/DX2                !
 ! R19   R(11,22)                1.0957         estimate D2E/DX2                !
 ! R20   R(11,23)                1.0957         estimate D2E/DX2                !
 ! R21   R(11,24)                1.0959         estimate D2E/DX2                !
 ! R22   R(12,25)                1.0957         estimate D2E/DX2                !
 ! R23   R(12,26)                1.0957         estimate D2E/DX2                !
 ! R24   R(12,27)                1.0957         estimate D2E/DX2                !
 ! R25   R(13,15)                1.3948         estimate D2E/DX2                !
 ! R26   R(13,28)                1.0857         estimate D2E/DX2                !
 ! R27   R(14,16)                1.3948         estimate D2E/DX2                !
 ! R28   R(14,29)                1.0867         estimate D2E/DX2                !
 ! R29   R(15,17)                1.3948         estimate D2E/DX2                !
 ! R30   R(15,30)                1.0862         estimate D2E/DX2                !
 ! R31   R(16,17)                1.395          estimate D2E/DX2                !
 ! R32   R(16,31)                1.0861         estimate D2E/DX2                !
 ! R33   R(17,32)                1.0861         estimate D2E/DX2                !
 ! A1    A(3,2,11)             120.4232         estimate D2E/DX2                !
 ! A2    A(3,2,12)             120.4186         estimate D2E/DX2                !
 ! A3    A(11,2,12)            119.1551         estimate D2E/DX2                !
 ! A4    A(2,3,5)              120.0171         estimate D2E/DX2                !
 ! A5    A(2,3,6)              119.9917         estimate D2E/DX2                !
 ! A6    A(5,3,6)              119.9912         estimate D2E/DX2                !
 ! A7    A(7,4,8)              122.873          estimate D2E/DX2                !
 ! A8    A(7,4,9)              118.5641         estimate D2E/DX2                !
 ! A9    A(8,4,9)              118.5629         estimate D2E/DX2                !
 ! A10   A(3,5,7)              120.0092         estimate D2E/DX2                !
 ! A11   A(3,5,18)             122.8093         estimate D2E/DX2                !
 ! A12   A(7,5,18)             117.1816         estimate D2E/DX2                !
 ! A13   A(3,6,8)              120.0078         estimate D2E/DX2                !
 ! A14   A(3,6,19)             122.8251         estimate D2E/DX2                !
 ! A15   A(8,6,19)             117.1671         estimate D2E/DX2                !
 ! A16   A(4,7,5)              118.5579         estimate D2E/DX2                !
 ! A17   A(4,7,20)             121.6196         estimate D2E/DX2                !
 ! A18   A(5,7,20)             119.8225         estimate D2E/DX2                !
 ! A19   A(4,8,6)              118.5609         estimate D2E/DX2                !
 ! A20   A(4,8,21)             121.6137         estimate D2E/DX2                !
 ! A21   A(6,8,21)             119.8254         estimate D2E/DX2                !
 ! A22   A(1,9,4)              117.3095         estimate D2E/DX2                !
 ! A23   A(1,9,10)             120.2807         estimate D2E/DX2                !
 ! A24   A(4,9,10)             122.4098         estimate D2E/DX2                !
 ! A25   A(9,10,13)            120.016          estimate D2E/DX2                !
 ! A26   A(9,10,14)            119.985          estimate D2E/DX2                !
 ! A27   A(13,10,14)           119.999          estimate D2E/DX2                !
 ! A28   A(2,11,22)            111.6867         estimate D2E/DX2                !
 ! A29   A(2,11,23)            111.1739         estimate D2E/DX2                !
 ! A30   A(2,11,24)            111.1875         estimate D2E/DX2                !
 ! A31   A(22,11,23)           106.5289         estimate D2E/DX2                !
 ! A32   A(22,11,24)           106.4515         estimate D2E/DX2                !
 ! A33   A(23,11,24)           109.5981         estimate D2E/DX2                !
 ! A34   A(2,12,25)            111.6871         estimate D2E/DX2                !
 ! A35   A(2,12,26)            111.1825         estimate D2E/DX2                !
 ! A36   A(2,12,27)            111.1845         estimate D2E/DX2                !
 ! A37   A(25,12,26)           106.4687         estimate D2E/DX2                !
 ! A38   A(25,12,27)           106.5017         estimate D2E/DX2                !
 ! A39   A(26,12,27)           109.6016         estimate D2E/DX2                !
 ! A40   A(10,13,15)           120.005          estimate D2E/DX2                !
 ! A41   A(10,13,28)           122.4429         estimate D2E/DX2                !
 ! A42   A(15,13,28)           117.5521         estimate D2E/DX2                !
 ! A43   A(10,14,16)           120.0018         estimate D2E/DX2                !
 ! A44   A(10,14,29)           121.4661         estimate D2E/DX2                !
 ! A45   A(16,14,29)           118.5321         estimate D2E/DX2                !
 ! A46   A(13,15,17)           119.9999         estimate D2E/DX2                !
 ! A47   A(13,15,30)           120.0349         estimate D2E/DX2                !
 ! A48   A(17,15,30)           119.9652         estimate D2E/DX2                !
 ! A49   A(14,16,17)           119.9966         estimate D2E/DX2                !
 ! A50   A(14,16,31)           120.025          estimate D2E/DX2                !
 ! A51   A(17,16,31)           119.9784         estimate D2E/DX2                !
 ! A52   A(15,17,16)           119.9978         estimate D2E/DX2                !
 ! A53   A(15,17,32)           120.0012         estimate D2E/DX2                !
 ! A54   A(16,17,32)           120.001          estimate D2E/DX2                !
 ! D1    D(11,2,3,5)             0.0021         estimate D2E/DX2                !
 ! D2    D(11,2,3,6)          -179.9263         estimate D2E/DX2                !
 ! D3    D(12,2,3,5)           179.3556         estimate D2E/DX2                !
 ! D4    D(12,2,3,6)            -0.5728         estimate D2E/DX2                !
 ! D5    D(3,2,11,22)         -179.7215         estimate D2E/DX2                !
 ! D6    D(3,2,11,23)           61.4377         estimate D2E/DX2                !
 ! D7    D(3,2,11,24)          -60.9692         estimate D2E/DX2                !
 ! D8    D(12,2,11,22)           0.9169         estimate D2E/DX2                !
 ! D9    D(12,2,11,23)        -117.9239         estimate D2E/DX2                !
 ! D10   D(12,2,11,24)         119.6692         estimate D2E/DX2                !
 ! D11   D(3,2,12,25)         -179.7961         estimate D2E/DX2                !
 ! D12   D(3,2,12,26)           61.433          estimate D2E/DX2                !
 ! D13   D(3,2,12,27)          -60.9823         estimate D2E/DX2                !
 ! D14   D(11,2,12,25)          -0.4345         estimate D2E/DX2                !
 ! D15   D(11,2,12,26)        -119.2053         estimate D2E/DX2                !
 ! D16   D(11,2,12,27)         118.3794         estimate D2E/DX2                !
 ! D17   D(2,3,5,7)           -179.921          estimate D2E/DX2                !
 ! D18   D(2,3,5,18)             0.0325         estimate D2E/DX2                !
 ! D19   D(6,3,5,7)              0.0074         estimate D2E/DX2                !
 ! D20   D(6,3,5,18)           179.9609         estimate D2E/DX2                !
 ! D21   D(2,3,6,8)            179.9301         estimate D2E/DX2                !
 ! D22   D(2,3,6,19)            -0.0682         estimate D2E/DX2                !
 ! D23   D(5,3,6,8)              0.0017         estimate D2E/DX2                !
 ! D24   D(5,3,6,19)          -179.9966         estimate D2E/DX2                !
 ! D25   D(8,4,7,5)              0.0087         estimate D2E/DX2                !
 ! D26   D(8,4,7,20)          -179.9653         estimate D2E/DX2                !
 ! D27   D(9,4,7,5)            179.9474         estimate D2E/DX2                !
 ! D28   D(9,4,7,20)            -0.0266         estimate D2E/DX2                !
 ! D29   D(7,4,8,6)              0.0003         estimate D2E/DX2                !
 ! D30   D(7,4,8,21)           179.9604         estimate D2E/DX2                !
 ! D31   D(9,4,8,6)           -179.9384         estimate D2E/DX2                !
 ! D32   D(9,4,8,21)             0.0217         estimate D2E/DX2                !
 ! D33   D(7,4,9,1)            -89.9751         estimate D2E/DX2                !
 ! D34   D(7,4,9,10)            90.003          estimate D2E/DX2                !
 ! D35   D(8,4,9,1)             89.9663         estimate D2E/DX2                !
 ! D36   D(8,4,9,10)           -90.0556         estimate D2E/DX2                !
 ! D37   D(3,5,7,4)             -0.0124         estimate D2E/DX2                !
 ! D38   D(3,5,7,20)           179.962          estimate D2E/DX2                !
 ! D39   D(18,5,7,4)          -179.9685         estimate D2E/DX2                !
 ! D40   D(18,5,7,20)            0.006          estimate D2E/DX2                !
 ! D41   D(3,6,8,4)             -0.0055         estimate D2E/DX2                !
 ! D42   D(3,6,8,21)          -179.9664         estimate D2E/DX2                !
 ! D43   D(19,6,8,4)           179.9929         estimate D2E/DX2                !
 ! D44   D(19,6,8,21)            0.032          estimate D2E/DX2                !
 ! D45   D(1,9,10,13)          179.9829         estimate D2E/DX2                !
 ! D46   D(1,9,10,14)           -0.0022         estimate D2E/DX2                !
 ! D47   D(4,9,10,13)            0.0055         estimate D2E/DX2                !
 ! D48   D(4,9,10,14)         -179.9797         estimate D2E/DX2                !
 ! D49   D(9,10,13,15)        -179.9804         estimate D2E/DX2                !
 ! D50   D(9,10,13,28)           0.0135         estimate D2E/DX2                !
 ! D51   D(14,10,13,15)          0.0048         estimate D2E/DX2                !
 ! D52   D(14,10,13,28)        179.9987         estimate D2E/DX2                !
 ! D53   D(9,10,14,16)         179.9899         estimate D2E/DX2                !
 ! D54   D(9,10,14,29)          -0.012          estimate D2E/DX2                !
 ! D55   D(13,10,14,16)          0.0047         estimate D2E/DX2                !
 ! D56   D(13,10,14,29)       -179.9971         estimate D2E/DX2                !
 ! D57   D(10,13,15,17)         -0.0095         estimate D2E/DX2                !
 ! D58   D(10,13,15,30)        179.9964         estimate D2E/DX2                !
 ! D59   D(28,13,15,17)        179.9963         estimate D2E/DX2                !
 ! D60   D(28,13,15,30)          0.0022         estimate D2E/DX2                !
 ! D61   D(10,14,16,17)         -0.0095         estimate D2E/DX2                !
 ! D62   D(10,14,16,31)       -179.996          estimate D2E/DX2                !
 ! D63   D(29,14,16,17)        179.9923         estimate D2E/DX2                !
 ! D64   D(29,14,16,31)          0.0058         estimate D2E/DX2                !
 ! D65   D(13,15,17,16)          0.0047         estimate D2E/DX2                !
 ! D66   D(13,15,17,32)       -179.9967         estimate D2E/DX2                !
 ! D67   D(30,15,17,16)        179.9988         estimate D2E/DX2                !
 ! D68   D(30,15,17,32)         -0.0026         estimate D2E/DX2                !
 ! D69   D(14,16,17,15)          0.0048         estimate D2E/DX2                !
 ! D70   D(14,16,17,32)       -179.9938         estimate D2E/DX2                !
 ! D71   D(31,16,17,15)        179.9912         estimate D2E/DX2                !
 ! D72   D(31,16,17,32)         -0.0074         estimate D2E/DX2                !
 --------------------------------------------------------------------------------
 Trust Radius=3.00D-01 FncErr=1.00D-07 GrdErr=1.00D-06 EigMax=2.50D+02 EigMin=1.00D-04
 Number of steps in this run=    169 maximum allowed number of steps=    192.
 GradGradGradGradGradGradGradGradGradGradGradGradGradGradGradGradGradGrad

 Leave Link  103 at Tue Dec  5 10:00:36 2023, MaxMem=  2147483648 cpu:               2.4 elap:               0.2
 (Enter /opt/gaussian/g16-c01/g16/l202.exe)
                          Input orientation:                          
 ---------------------------------------------------------------------
 Center     Atomic      Atomic             Coordinates (Angstroms)
 Number     Number       Type             X           Y           Z
 ---------------------------------------------------------------------
      1          8           0       -1.417300    2.429200   -0.005200
      2          7           0        4.178500   -0.507100    0.000900
      3          6           0        2.834000   -0.081100   -0.000100
      4          6           0        0.213400    0.752400   -0.001600
      5          6           0        2.168900    0.127200   -1.208400
      6          6           0        2.169700    0.133400    1.207400
      7          6           0        0.839700    0.550100   -1.209200
      8          6           0        0.840500    0.556100    1.206800
      9          6           0       -1.210200    1.206600   -0.002300
     10          6           0       -2.325900    0.273900   -0.000200
     11          6           0        4.878300   -0.731300   -1.248400
     12          6           0        4.882200   -0.712800    1.251200
     13          6           0       -2.086600   -1.100200    0.002700
     14          6           0       -3.635600    0.753700   -0.001400
     15          6           0       -3.156900   -1.994600    0.004300
     16          6           0       -4.706000   -0.140600    0.000400
     17          6           0       -4.466600   -1.514900    0.003200
     18          1           0        2.641400   -0.025000   -2.173700
     19          1           0        2.642400   -0.014300    2.173400
     20          1           0        0.325100    0.711900   -2.151500
     21          1           0        0.326400    0.722700    2.148500
     22          1           0        5.909200   -1.062800   -1.081200
     23          1           0        4.938900    0.189700   -1.838900
     24          1           0        4.392100   -1.515600   -1.839500
     25          1           0        5.915200   -1.038600    1.085600
     26          1           0        4.402600   -1.493900    1.851600
     27          1           0        4.937700    0.214900    1.831600
     28          1           0       -1.084000   -1.516800    0.003700
     29          1           0       -3.849400    1.819200   -0.003700
     30          1           0       -2.971100   -3.064800    0.006500
     31          1           0       -5.726000    0.232600   -0.000600
     32          1           0       -5.300000   -2.211300    0.004500
 ---------------------------------------------------------------------
                    Distance matrix (angstroms):
                    1          2          3          4          5
     1  O    0.000000
     2  N    6.319404   0.000000
     3  C    4.937123   1.410375   0.000000
     4  C    2.338986   4.160332   2.749958   0.000000
     5  C    4.428061   2.429657   1.394896   2.381433   0.000000
     6  C    4.428054   2.429230   1.394762   2.381586   2.415808
     7  C    3.174064   3.705347   2.416106   1.375309   1.394854
     8  C    3.174131   3.704974   2.415921   1.375507   2.789586
     9  C    1.240020   5.654632   4.244258   1.494301   3.746745
    10  C    2.338995   6.551121   5.172098   2.583991   4.656661
    11  C    7.153243   1.449392   2.481970   5.051452   2.842441
    12  C    7.150832   1.449399   2.481919   5.051140   3.757290
    13  C    3.592310   6.293111   5.025025   2.953328   4.591574
    14  C    2.779959   7.915161   6.523237   3.849000   5.961675
    15  C    4.753557   7.484702   6.289069   4.347984   5.859763
    16  C    4.173662   8.892056   7.540235   4.999795   6.985497
    17  C    4.985401   8.703644   7.440064   5.200295   6.942213
    18  H    5.215222   2.706286   2.182837   3.349262   1.085461
    19  H    5.215185   2.705958   2.182951   3.349402   3.417718
    20  H    3.254486   4.579026   3.398816   2.153181   2.151955
    21  H    3.254390   4.578566   3.398622   2.153272   3.875333
    22  H    8.187151   2.115435   3.404316   6.074753   3.927101
    23  H    6.984203   2.109171   2.808046   5.101240   2.841538
    24  H    7.257770   2.109448   2.805149   5.097375   2.835436
    25  H    8.184194   2.115465   3.404313   6.074554   4.544919
    26  H    7.260142   2.109286   2.808078   5.101922   4.120799
    27  H    6.975886   2.109296   2.805048   5.095934   4.112851
    28  H    3.960061   5.358489   4.172766   2.613913   3.841000
    29  H    2.507431   8.358162   6.948308   4.200525   6.366640
    30  H    5.709507   7.593329   6.526997   4.971129   6.171260
    31  H    4.836318   9.932083   8.565746   5.962102   7.987449
    32  H    6.050594   9.630487   8.408313   6.259484   7.919860
                    6          7          8          9         10
     6  C    0.000000
     7  C    2.789712   0.000000
     8  C    1.394793   2.416008   0.000000
     9  C    3.746846   2.467730   2.467882   0.000000
    10  C    4.657087   3.399852   3.400379   1.454208   0.000000
    11  C    3.757017   4.237194   4.897881   6.509843   7.380307
    12  C    2.841765   4.897988   4.236439   6.509431   7.382160
    13  C    4.592294   3.571474   3.572268   2.467677   1.394784
    14  C    5.962171   4.639886   4.640503   2.467323   1.394820
    15  C    5.860759   4.890899   4.891961   3.746647   2.415921
    16  C    6.986213   5.717953   5.718781   3.746408   2.415924
    17  C    6.943160   5.821594   5.822629   4.243905   2.789698
    18  H    3.417518   2.122999   3.874106   4.589841   5.430241
    19  H    1.085549   3.874307   2.122855   4.589858   5.430617
    20  H    3.875490   1.085782   3.401189   2.687180   3.442054
    21  H    2.151906   3.401091   1.085750   2.687236   3.442823
    22  H    4.544496   5.321434   5.792020   7.549838   8.412621
    23  H    4.117230   4.162914   5.119318   6.497585   7.494346
    24  H    4.116049   4.157396   5.117201   6.493954   7.191443
    25  H    3.926473   5.792303   5.320746   7.549555   8.415304
    26  H    2.837066   5.122567   4.160147   6.498705   7.199097
    27  H    2.838678   5.113944   4.158586   6.491790   7.491252
    28  H    3.841695   3.073080   3.073770   2.726329   2.179206
    29  H    6.366965   5.005148   5.005586   2.709365   2.170027
    30  H    6.172396   5.391440   5.392581   4.620141   3.400477
    31  H    7.988190   6.683557   6.684414   4.619646   3.400351
    32  H    7.920922   6.840637   6.841766   5.329967   3.875760
                   11         12         13         14         15
    11  C    0.000000
    12  C    2.499672   0.000000
    13  C    7.085984   7.090346   0.000000
    14  C    8.731937   8.733415   2.415857   0.000000
    15  C    8.229801   8.235587   1.394810   2.789684   0.000000
    16  C    9.683348   9.686356   2.789640   1.394823   2.415997
    17  C    9.460850   9.465777   2.415859   2.416015   1.394786
    18  H    2.521658   4.150204   5.314768   6.687749   6.499484
    19  H    4.149946   2.520924   5.315502   6.688263   6.500651
    20  H    4.861075   5.863045   3.706829   4.506864   4.908863
    21  H    5.862835   4.860156   3.708098   4.507824   4.910671
    22  H    1.095720   2.572415   8.069018   9.775932   9.178275
    23  H    1.095721   3.219696   7.376516   8.787295   8.585484
    24  H    1.095863   3.230652   6.748319   8.542383   7.785656
    25  H    2.572382   1.095745   8.074978   9.778123   9.186193
    26  H    3.227669   1.095725   6.758931   8.549735   7.798029
    27  H    3.222611   1.095706   7.376663   8.783602   8.587402
    28  H    6.142783   6.148025   1.085709   3.415532   2.127254
    29  H    9.177531   9.177507   3.410337   1.086741   3.876170
    30  H    8.284508   8.291894   2.154532   3.875895   1.086211
    31  H   10.720881  10.723558   3.875771   2.154372   3.400106
    32  H   10.361368  10.367110   3.400071   3.400219   2.154028
                   16         17         18         19         20
    16  C    0.000000
    17  C    1.394998   0.000000
    18  H    7.663182   7.581712   0.000000
    19  H    7.663998   7.582839   4.347113   0.000000
    20  H    5.537996   5.706291   2.430794   4.960041   0.000000
    21  H    5.539375   5.708066   4.959808   2.430565   4.300014
    22  H   10.709938  10.442104   3.598486   4.729033   5.956280
    23  H    9.824267   9.734599   2.331672   4.627535   4.653769
    24  H    9.383564   9.048321   2.323473   4.628036   4.647536
    25  H   10.714194  10.448934   4.729502   3.597738   6.692704
    26  H    9.392814   9.059787   4.632767   2.321869   6.125061
    27  H    9.822455   9.735302   4.623091   2.331901   6.114587
    28  H    3.874638   3.382601   4.565648   4.566307   3.405518
    29  H    2.138831   3.390753   7.088050   7.088368   4.823444
    30  H    3.400127   2.153769   6.744910   6.746287   5.457597
    31  H    1.086130   2.154033   8.648821   8.649703   6.439869
    32  H    2.154217   1.086062   8.519994   8.521306   6.695908
                   21         22         23         24         25
    21  H    0.000000
    22  H    6.692281   0.000000
    23  H    6.120343   1.756231   0.000000
    24  H    6.119154   1.755460   1.790821   0.000000
    25  H    5.955386   2.166943   3.318823   3.332202   0.000000
    26  H    4.649395   3.325208   4.091689   3.691179   1.755566
    27  H    4.649986   3.325768   3.670587   4.095032   1.755928
    28  H    3.406575   7.091401   6.525538   5.777981   7.098449
    29  H    4.824063  10.232165   9.124552   9.078181  10.232351
    30  H    5.459563   9.167924   8.750164   7.747545   9.178032
    31  H    6.441302  11.756855  10.822259  10.431381  11.760668
    32  H    6.697870  11.320069  10.676984   9.890457  11.328050
                   26         27         28         29         30
    26  H    0.000000
    27  H    1.790734   0.000000
    28  H    5.789477   6.526935   0.000000
    29  H    9.083737   9.118949   4.333173   0.000000
    30  H    7.761673   8.754230   2.440790   4.962355   0.000000
    31  H   10.440306  10.819971   4.960704   2.457425   4.296786
    32  H    9.902873  10.678728   4.272820   4.283601   2.480371
                   31         32
    31  H    0.000000
    32  H    2.480756   0.000000
 Stoichiometry    C15H15NO
 Framework group  C1[X(C15H15NO)]
 Deg. of freedom    90
 Full point group                 C1      NOp   1
 Largest Abelian subgroup         C1      NOp   1
 Largest concise Abelian subgroup C1      NOp   1
                         Standard orientation:                         
 ---------------------------------------------------------------------
 Center     Atomic      Atomic             Coordinates (Angstroms)
 Number     Number       Type             X           Y           Z
 ---------------------------------------------------------------------
      1          8           0        1.613360    2.434622    0.007821
      2          7           0       -4.028540   -0.412089   -0.001093
      3          6           0       -2.677419   -0.007578    0.000281
      4          6           0       -0.043865    0.784037    0.002513
      5          6           0       -2.009026    0.188784    1.208762
      6          6           0       -2.009842    0.197612   -1.207029
      7          6           0       -0.673253    0.590440    1.209934
      8          6           0       -0.674072    0.599067   -1.206058
      9          6           0        1.386795    1.215483    0.003612
     10          6           0        2.487484    0.265118    0.000430
     11          6           0       -4.731766   -0.626457    1.248009
     12          6           0       -4.735489   -0.605191   -1.251569
     13          6           0        2.226309   -1.104988   -0.003941
     14          6           0        3.804667    0.723977    0.002064
     15          6           0        3.282214   -2.016335   -0.006577
     16          6           0        4.860674   -0.187271   -0.000772
     17          6           0        4.599395   -1.557577   -0.005044
     18          1           0       -2.483846    0.043091    2.173928
     19          1           0       -2.484882    0.058512   -2.173158
     20          1           0       -0.156094    0.742995    2.152375
     21          1           0       -0.157426    0.758470   -2.147611
     22          1           0       -5.767827   -0.941299    1.080518
     23          1           0       -4.777647    0.294753    1.839509
     24          1           0       -4.258102   -1.419047    1.838229
     25          1           0       -5.773544   -0.914660   -1.086254
     26          1           0       -4.268431   -1.393187   -1.852844
     27          1           0       -4.776220    0.323904   -1.830961
     28          1           0        1.217195   -1.505551   -0.005326
     29          1           0        4.035426    1.785930    0.005503
     30          1           0        3.079377   -3.083434   -0.009923
     31          1           0        5.886494    0.169619    0.000565
     32          1           0        5.421587   -2.267172   -0.007151
 ---------------------------------------------------------------------
 Rotational constants (GHZ):           1.2314930           0.2111642           0.2006348
 Leave Link  202 at Tue Dec  5 10:00:37 2023, MaxMem=  2147483648 cpu:               3.5 elap:               0.2
 (Enter /opt/gaussian/g16-c01/g16/l301.exe)
 Standard basis: 6-311++G(d,p) (5D, 7F)
 Ernie: Thresh=  0.10000D-02 Tol=  0.10000D-05 Strict=F.
 There are   496 symmetry adapted cartesian basis functions of A   symmetry.
 There are   479 symmetry adapted basis functions of A   symmetry.
   479 basis functions,   747 primitive gaussians,   496 cartesian basis functions
    60 alpha electrons       60 beta electrons
       nuclear repulsion energy      1092.0670233066 Hartrees.
 IExCor= 7252 DFT=T Ex+Corr=MN15 ExCW=0 ScaHFX=  0.440000
 ScaDFX=  1.000000  1.000000  1.000000  1.000000 ScalE2=  1.000000  1.000000
 IRadAn=      5 IRanWt=     -1 IRanGd=            0 ICorTp=0 IEmpDi=  4
 NAtoms=   32 NActive=   32 NUniq=   32 SFac= 1.00D+00 NAtFMM=   60 NAOKFM=F Big=F
 Integral buffers will be    131072 words long.
 Raffenetti 2 integral format.
 Two-electron integral symmetry is turned on.
 Leave Link  301 at Tue Dec  5 10:00:37 2023, MaxMem=  2147483648 cpu:               2.3 elap:               0.2
 (Enter /opt/gaussian/g16-c01/g16/l302.exe)
 NPDir=0 NMtPBC=     1 NCelOv=     1 NCel=       1 NClECP=     1 NCelD=      1
         NCelK=      1 NCelE2=     1 NClLst=     1 CellRange=     0.0.
 One-electron integrals computed using PRISM.
 One-electron integral symmetry used in STVInt
 NBasis=   479 RedAO= T EigKep=  1.60D-06  NBF=   479
 NBsUse=   475 1.00D-06 EigRej=  7.32D-07 NBFU=   475
 Precomputing XC quadrature grid using
 IXCGrd= 4 IRadAn=           5 IRanWt=          -1 IRanGd=           0 AccXCQ= 0.00D+00.
 Generated NRdTot=       0 NPtTot=           0 NUsed=           0 NTot=          32
 NSgBfM=   495   495   495   495   495 MxSgAt=    32 MxSgA2=    32.
 Leave Link  302 at Tue Dec  5 10:00:38 2023, MaxMem=  2147483648 cpu:              40.0 elap:               1.7
 (Enter /opt/gaussian/g16-c01/g16/l303.exe)
 DipDrv:  MaxL=1.
 Leave Link  303 at Tue Dec  5 10:00:39 2023, MaxMem=  2147483648 cpu:               5.4 elap:               0.3
 (Enter /opt/gaussian/g16-c01/g16/l401.exe)
 ExpMin= 3.60D-02 ExpMax= 8.59D+03 ExpMxC= 1.30D+03 IAcc=3 IRadAn=         5 AccDes= 0.00D+00
 Harris functional with IExCor= 1009 and IRadAn=       5 diagonalized for initial guess.
 HarFok:  IExCor= 1009 AccDes= 0.00D+00 IRadAn=         5 IDoV= 1 UseB2=F ITyADJ=14
 ICtDFT=  3500011 ScaDFX=  1.000000  1.000000  1.000000  1.000000
 FoFCou: FMM=F IPFlag=           0 FMFlag=      100000 FMFlg1=           0
         NFxFlg=           0 DoJE=T BraDBF=F KetDBF=T FulRan=T
         wScrn=  0.000000 ICntrl=       500 IOpCl=  0 I1Cent=   200000004 NGrid=           0
         NMat0=    1 NMatS0=      1 NMatT0=    0 NMatD0=    1 NMtDS0=    0 NMtDT0=    0
 Petite list used in FoFCou.
 Harris En= -710.151231126896    
 JPrj=0 DoOrth=F DoCkMO=F.
 Leave Link  401 at Tue Dec  5 10:00:40 2023, MaxMem=  2147483648 cpu:              35.9 elap:               1.5
 (Enter /opt/gaussian/g16-c01/g16/l502.exe)
 Integral symmetry usage will be decided dynamically.
 Closed shell SCF:
 Using DIIS extrapolation, IDIIS=  1040.
 NGot=  2147483648 LenX=  2146973194 LenY=  2146726682
 Requested convergence on RMS density matrix=1.00D-08 within 128 cycles.
 Requested convergence on MAX density matrix=1.00D-06.
 Requested convergence on             energy=1.00D-06.
 No special actions if energy rises.
 Fock matrices will be formed incrementally for  20 cycles.

 Cycle   1  Pass 1  IDiag  1:
 FoFJK:  IHMeth= 1 ICntrl=       0 DoSepK=F KAlg= 0 I1Cent=           0 FoldK=F
 IRaf= 840000000 NMat=       1 IRICut=       1 DoRegI=T DoRafI=F ISym2E= 0 IDoP0=0 IntGTp=1.
 FoFCou: FMM=F IPFlag=           0 FMFlag=      100000 FMFlg1=           0
         NFxFlg=           0 DoJE=F BraDBF=F KetDBF=F FulRan=T
         wScrn=  0.000000 ICntrl=         0 IOpCl=  0 I1Cent=           0 NGrid=           0
         NMat0=    1 NMatS0=      1 NMatT0=    0 NMatD0=    1 NMtDS0=    0 NMtDT0=    0
 Symmetry not used in FoFCou.
 E= -709.509762420310    
 DIIS: error= 2.84D-02 at cycle   1 NSaved=   1.
 NSaved= 1 IEnMin= 1 EnMin= -709.509762420310     IErMin= 1 ErrMin= 2.84D-02
 ErrMax= 2.84D-02  0.00D+00 EMaxC= 1.00D-01 BMatC= 4.34D-01 BMatP= 4.34D-01
 IDIUse=3 WtCom= 7.16D-01 WtEn= 2.84D-01
 Coeff-Com:  0.100D+01
 Coeff-En:   0.100D+01
 Coeff:      0.100D+01
 Gap=     0.208 Goal=   None    Shift=    0.000
 GapD=    0.208 DampG=1.000 DampE=0.500 DampFc=0.5000 IDamp=-1.
 Damping current iteration by 5.00D-01
 RMSDP=2.85D-02 MaxDP=2.21D+00              OVMax= 1.52D-01

 Cycle   2  Pass 1  IDiag  1:
 RMSU=  8.38D-03    CP:  8.01D-01
 E= -709.693848530747     Delta-E=       -0.184086110437 Rises=F Damp=T
 DIIS: error= 9.37D-03 at cycle   2 NSaved=   2.
 NSaved= 2 IEnMin= 2 EnMin= -709.693848530747     IErMin= 2 ErrMin= 9.37D-03
 ErrMax= 9.37D-03  0.00D+00 EMaxC= 1.00D-01 BMatC= 4.33D-02 BMatP= 4.34D-01
 IDIUse=3 WtCom= 9.06D-01 WtEn= 9.37D-02
 Coeff-Com: -0.400D-01 0.104D+01
 Coeff-En:   0.000D+00 0.100D+01
 Coeff:     -0.363D-01 0.104D+01
 Gap=     0.283 Goal=   None    Shift=    0.000
 RMSDP=1.64D-02 MaxDP=1.28D+00 DE=-1.84D-01 OVMax= 1.15D-01

 Cycle   3  Pass 1  IDiag  1:
 RMSU=  8.86D-03    CP:  5.64D-01  1.12D+00
 E= -709.863906093540     Delta-E=       -0.170057562793 Rises=F Damp=F
 DIIS: error= 1.37D-02 at cycle   3 NSaved=   3.
 NSaved= 3 IEnMin= 3 EnMin= -709.863906093540     IErMin= 2 ErrMin= 9.37D-03
 ErrMax= 1.37D-02  0.00D+00 EMaxC= 1.00D-01 BMatC= 3.34D-02 BMatP= 4.33D-02
 IDIUse=3 WtCom= 8.63D-01 WtEn= 1.37D-01
 Coeff-Com: -0.951D-01 0.524D+00 0.571D+00
 Coeff-En:   0.000D+00 0.000D+00 0.100D+01
 Coeff:     -0.821D-01 0.453D+00 0.630D+00
 Gap=     0.190 Goal=   None    Shift=    0.000
 RMSDP=3.28D-03 MaxDP=2.51D-01 DE=-1.70D-01 OVMax= 5.86D-02

 Cycle   4  Pass 1  IDiag  1:
 RMSU=  2.34D-03    CP:  5.39D-01  1.23D+00  8.25D-01
 E= -709.876827880915     Delta-E=       -0.012921787375 Rises=F Damp=F
 DIIS: error= 8.27D-03 at cycle   4 NSaved=   4.
 NSaved= 4 IEnMin= 4 EnMin= -709.876827880915     IErMin= 4 ErrMin= 8.27D-03
 ErrMax= 8.27D-03  0.00D+00 EMaxC= 1.00D-01 BMatC= 1.51D-02 BMatP= 3.34D-02
 IDIUse=3 WtCom= 9.17D-01 WtEn= 8.27D-02
 Coeff-Com: -0.348D-01 0.126D+00 0.419D+00 0.490D+00
 Coeff-En:   0.000D+00 0.000D+00 0.351D+00 0.649D+00
 Coeff:     -0.319D-01 0.116D+00 0.413D+00 0.503D+00
 Gap=     0.189 Goal=   None    Shift=    0.000
 RMSDP=1.93D-03 MaxDP=1.75D-01 DE=-1.29D-02 OVMax= 2.90D-02

 Cycle   5  Pass 1  IDiag  1:
 RMSU=  8.09D-04    CP:  5.16D-01  1.21D+00  8.31D-01  5.17D-01
 E= -709.888057822725     Delta-E=       -0.011229941810 Rises=F Damp=F
 DIIS: error= 1.06D-03 at cycle   5 NSaved=   5.
 NSaved= 5 IEnMin= 5 EnMin= -709.888057822725     IErMin= 5 ErrMin= 1.06D-03
 ErrMax= 1.06D-03  0.00D+00 EMaxC= 1.00D-01 BMatC= 3.00D-04 BMatP= 1.51D-02
 IDIUse=3 WtCom= 9.89D-01 WtEn= 1.06D-02
 Coeff-Com: -0.104D-01 0.314D-01 0.165D+00 0.241D+00 0.574D+00
 Coeff-En:   0.000D+00 0.000D+00 0.000D+00 0.000D+00 0.100D+01
 Coeff:     -0.102D-01 0.311D-01 0.163D+00 0.238D+00 0.578D+00
 Gap=     0.187 Goal=   None    Shift=    0.000
 RMSDP=4.19D-04 MaxDP=5.08D-02 DE=-1.12D-02 OVMax= 5.07D-03

 Cycle   6  Pass 1  IDiag  1:
 RMSU=  2.28D-04    CP:  5.20D-01  1.22D+00  8.44D-01  5.80D-01  7.72D-01
 E= -709.888293487883     Delta-E=       -0.000235665158 Rises=F Damp=F
 DIIS: error= 3.66D-04 at cycle   6 NSaved=   6.
 NSaved= 6 IEnMin= 6 EnMin= -709.888293487883     IErMin= 6 ErrMin= 3.66D-04
 ErrMax= 3.66D-04  0.00D+00 EMaxC= 1.00D-01 BMatC= 3.46D-05 BMatP= 3.00D-04
 IDIUse=3 WtCom= 9.96D-01 WtEn= 3.66D-03
 Coeff-Com: -0.149D-02 0.289D-02 0.383D-01 0.679D-01 0.298D+00 0.594D+00
 Coeff-En:   0.000D+00 0.000D+00 0.000D+00 0.000D+00 0.498D-01 0.950D+00
 Coeff:     -0.148D-02 0.288D-02 0.382D-01 0.677D-01 0.297D+00 0.595D+00
 Gap=     0.189 Goal=   None    Shift=    0.000
 RMSDP=1.49D-04 MaxDP=1.45D-02 DE=-2.36D-04 OVMax= 3.17D-03

 Cycle   7  Pass 1  IDiag  1:
 RMSU=  8.39D-05    CP:  5.20D-01  1.22D+00  8.55D-01  5.75D-01  7.79D-01
                    CP:  7.35D-01
 E= -709.888325765898     Delta-E=       -0.000032278015 Rises=F Damp=F
 DIIS: error= 1.15D-04 at cycle   7 NSaved=   7.
 NSaved= 7 IEnMin= 7 EnMin= -709.888325765898     IErMin= 7 ErrMin= 1.15D-04
 ErrMax= 1.15D-04  0.00D+00 EMaxC= 1.00D-01 BMatC= 3.68D-06 BMatP= 3.46D-05
 IDIUse=3 WtCom= 9.99D-01 WtEn= 1.15D-03
 Coeff-Com:  0.562D-03-0.262D-02 0.108D-03 0.538D-02 0.782D-01 0.302D+00
 Coeff-Com:  0.616D+00
 Coeff-En:   0.000D+00 0.000D+00 0.000D+00 0.000D+00 0.000D+00 0.000D+00
 Coeff-En:   0.100D+01
 Coeff:      0.561D-03-0.262D-02 0.108D-03 0.538D-02 0.781D-01 0.302D+00
 Coeff:      0.617D+00
 Gap=     0.188 Goal=   None    Shift=    0.000
 RMSDP=5.63D-05 MaxDP=4.58D-03 DE=-3.23D-05 OVMax= 4.82D-04

 Cycle   8  Pass 1  IDiag  1:
 RMSU=  2.69D-05    CP:  5.20D-01  1.22D+00  8.52D-01  5.79D-01  7.88D-01
                    CP:  8.68D-01  8.29D-01
 E= -709.888329151457     Delta-E=       -0.000003385559 Rises=F Damp=F
 DIIS: error= 2.59D-05 at cycle   8 NSaved=   8.
 NSaved= 8 IEnMin= 8 EnMin= -709.888329151457     IErMin= 8 ErrMin= 2.59D-05
 ErrMax= 2.59D-05  0.00D+00 EMaxC= 1.00D-01 BMatC= 2.77D-07 BMatP= 3.68D-06
 IDIUse=1 WtCom= 1.00D+00 WtEn= 0.00D+00
 Coeff-Com:  0.572D-03-0.184D-02-0.541D-02-0.785D-02-0.598D-02 0.629D-01
 Coeff-Com:  0.246D+00 0.712D+00
 Coeff:      0.572D-03-0.184D-02-0.541D-02-0.785D-02-0.598D-02 0.629D-01
 Coeff:      0.246D+00 0.712D+00
 Gap=     0.188 Goal=   None    Shift=    0.000
 RMSDP=1.36D-05 MaxDP=1.20D-03 DE=-3.39D-06 OVMax= 2.47D-04

 Cycle   9  Pass 1  IDiag  1:
 RMSU=  5.99D-06    CP:  5.20D-01  1.22D+00  8.53D-01  5.79D-01  7.91D-01
                    CP:  8.87D-01  8.74D-01  9.45D-01
 E= -709.888329441340     Delta-E=       -0.000000289883 Rises=F Damp=F
 DIIS: error= 1.30D-05 at cycle   9 NSaved=   9.
 NSaved= 9 IEnMin= 9 EnMin= -709.888329441340     IErMin= 9 ErrMin= 1.30D-05
 ErrMax= 1.30D-05  0.00D+00 EMaxC= 1.00D-01 BMatC= 4.41D-08 BMatP= 2.77D-07
 IDIUse=1 WtCom= 1.00D+00 WtEn= 0.00D+00
 Coeff-Com:  0.247D-03-0.696D-03-0.242D-02-0.416D-02-0.879D-02 0.787D-02
 Coeff-Com:  0.579D-01 0.341D+00 0.609D+00
 Coeff:      0.247D-03-0.696D-03-0.242D-02-0.416D-02-0.879D-02 0.787D-02
 Coeff:      0.579D-01 0.341D+00 0.609D+00
 Gap=     0.188 Goal=   None    Shift=    0.000
 RMSDP=4.60D-06 MaxDP=4.63D-04 DE=-2.90D-07 OVMax= 6.78D-05

 Cycle  10  Pass 1  IDiag  1:
 RMSU=  1.79D-06    CP:  5.20D-01  1.22D+00  8.52D-01  5.79D-01  7.92D-01
                    CP:  8.98D-01  8.66D-01  1.03D+00  1.06D+00
 E= -709.888329485126     Delta-E=       -0.000000043786 Rises=F Damp=F
 DIIS: error= 4.30D-06 at cycle  10 NSaved=  10.
 NSaved=10 IEnMin=10 EnMin= -709.888329485126     IErMin=10 ErrMin= 4.30D-06
 ErrMax= 4.30D-06  0.00D+00 EMaxC= 1.00D-01 BMatC= 5.39D-09 BMatP= 4.41D-08
 IDIUse=1 WtCom= 1.00D+00 WtEn= 0.00D+00
 Coeff-Com:  0.806D-05 0.360D-04 0.128D-04-0.380D-03-0.294D-02-0.874D-02
 Coeff-Com: -0.281D-01 0.100D-01 0.263D+00 0.767D+00
 Coeff:      0.806D-05 0.360D-04 0.128D-04-0.380D-03-0.294D-02-0.874D-02
 Coeff:     -0.281D-01 0.100D-01 0.263D+00 0.767D+00
 Gap=     0.188 Goal=   None    Shift=    0.000
 RMSDP=1.60D-06 MaxDP=9.98D-05 DE=-4.38D-08 OVMax= 3.73D-05

 Cycle  11  Pass 1  IDiag  1:
 RMSU=  6.53D-07    CP:  5.20D-01  1.22D+00  8.52D-01  5.79D-01  7.92D-01
                    CP:  9.00D-01  8.68D-01  1.05D+00  1.15D+00  9.69D-01
 E= -709.888329491226     Delta-E=       -0.000000006100 Rises=F Damp=F
 DIIS: error= 2.06D-06 at cycle  11 NSaved=  11.
 NSaved=11 IEnMin=11 EnMin= -709.888329491226     IErMin=11 ErrMin= 2.06D-06
 ErrMax= 2.06D-06  0.00D+00 EMaxC= 1.00D-01 BMatC= 6.66D-10 BMatP= 5.39D-09
 IDIUse=1 WtCom= 1.00D+00 WtEn= 0.00D+00
 Coeff-Com: -0.177D-04 0.773D-04 0.220D-03 0.188D-03-0.675D-03-0.430D-02
 Coeff-Com: -0.177D-01-0.236D-01 0.673D-01 0.363D+00 0.616D+00
 Coeff:     -0.177D-04 0.773D-04 0.220D-03 0.188D-03-0.675D-03-0.430D-02
 Coeff:     -0.177D-01-0.236D-01 0.673D-01 0.363D+00 0.616D+00
 Gap=     0.188 Goal=   None    Shift=    0.000
 RMSDP=5.71D-07 MaxDP=4.92D-05 DE=-6.10D-09 OVMax= 1.18D-05

 Cycle  12  Pass 1  IDiag  1:
 RMSU=  2.61D-07    CP:  5.20D-01  1.22D+00  8.52D-01  5.79D-01  7.92D-01
                    CP:  9.00D-01  8.67D-01  1.05D+00  1.17D+00  1.07D+00
                    CP:  8.78D-01
 E= -709.888329492019     Delta-E=       -0.000000000793 Rises=F Damp=F
 DIIS: error= 5.42D-07 at cycle  12 NSaved=  12.
 NSaved=12 IEnMin=12 EnMin= -709.888329492019     IErMin=12 ErrMin= 5.42D-07
 ErrMax= 5.42D-07  0.00D+00 EMaxC= 1.00D-01 BMatC= 6.19D-11 BMatP= 6.66D-10
 IDIUse=1 WtCom= 1.00D+00 WtEn= 0.00D+00
 Coeff-Com: -0.840D-05 0.256D-04 0.826D-04 0.125D-03 0.105D-03-0.304D-03
 Coeff-Com: -0.272D-02-0.105D-01-0.126D-01 0.325D-01 0.253D+00 0.740D+00
 Coeff:     -0.840D-05 0.256D-04 0.826D-04 0.125D-03 0.105D-03-0.304D-03
 Coeff:     -0.272D-02-0.105D-01-0.126D-01 0.325D-01 0.253D+00 0.740D+00
 Gap=     0.188 Goal=   None    Shift=    0.000
 RMSDP=1.44D-07 MaxDP=6.95D-06 DE=-7.93D-10 OVMax= 3.64D-06

 Cycle  13  Pass 1  IDiag  1:
 RMSU=  7.01D-08    CP:  5.20D-01  1.22D+00  8.52D-01  5.79D-01  7.92D-01
                    CP:  9.00D-01  8.67D-01  1.05D+00  1.18D+00  1.10D+00
                    CP:  9.54D-01  1.04D+00
 E= -709.888329492013     Delta-E=        0.000000000007 Rises=F Damp=F
 DIIS: error= 1.08D-07 at cycle  13 NSaved=  13.
 NSaved=13 IEnMin=12 EnMin= -709.888329492019     IErMin=13 ErrMin= 1.08D-07
 ErrMax= 1.08D-07  0.00D+00 EMaxC= 1.00D-01 BMatC= 6.58D-12 BMatP= 6.19D-11
 IDIUse=1 WtCom= 1.00D+00 WtEn= 0.00D+00
 Coeff-Com: -0.244D-05 0.525D-05 0.198D-04 0.407D-04 0.990D-04 0.210D-03
 Coeff-Com:  0.182D-03-0.287D-02-0.128D-01-0.171D-01 0.687D-01 0.325D+00
 Coeff-Com:  0.638D+00
 Coeff:     -0.244D-05 0.525D-05 0.198D-04 0.407D-04 0.990D-04 0.210D-03
 Coeff:      0.182D-03-0.287D-02-0.128D-01-0.171D-01 0.687D-01 0.325D+00
 Coeff:      0.638D+00
 Gap=     0.188 Goal=   None    Shift=    0.000
 RMSDP=4.59D-08 MaxDP=3.09D-06 DE= 6.59D-12 OVMax= 9.15D-07

 Cycle  14  Pass 1  IDiag  1:
 RMSU=  2.73D-08    CP:  5.20D-01  1.22D+00  8.52D-01  5.79D-01  7.92D-01
                    CP:  9.00D-01  8.67D-01  1.05D+00  1.18D+00  1.10D+00
                    CP:  9.65D-01  1.07D+00  9.17D-01
 E= -709.888329492060     Delta-E=       -0.000000000047 Rises=F Damp=F
 DIIS: error= 5.99D-08 at cycle  14 NSaved=  14.
 NSaved=14 IEnMin=14 EnMin= -709.888329492060     IErMin=14 ErrMin= 5.99D-08
 ErrMax= 5.99D-08  0.00D+00 EMaxC= 1.00D-01 BMatC= 9.18D-13 BMatP= 6.58D-12
 IDIUse=1 WtCom= 1.00D+00 WtEn= 0.00D+00
 Coeff-Com:  0.284D-06-0.166D-05-0.280D-05-0.909D-06 0.308D-04 0.152D-03
 Coeff-Com:  0.462D-03 0.573D-03-0.350D-02-0.109D-01-0.446D-02 0.222D-01
 Coeff-Com:  0.277D+00 0.718D+00
 Coeff:      0.284D-06-0.166D-05-0.280D-05-0.909D-06 0.308D-04 0.152D-03
 Coeff:      0.462D-03 0.573D-03-0.350D-02-0.109D-01-0.446D-02 0.222D-01
 Coeff:      0.277D+00 0.718D+00
 Gap=     0.188 Goal=   None    Shift=    0.000
 RMSDP=2.21D-08 MaxDP=1.67D-06 DE=-4.73D-11 OVMax= 5.46D-07

 Cycle  15  Pass 1  IDiag  1:
 RMSU=  8.86D-09    CP:  5.20D-01  1.22D+00  8.52D-01  5.79D-01  7.92D-01
                    CP:  9.00D-01  8.67D-01  1.05D+00  1.18D+00  1.10D+00
                    CP:  9.68D-01  1.09D+00  1.01D+00  1.06D+00
 E= -709.888329492071     Delta-E=       -0.000000000011 Rises=F Damp=F
 DIIS: error= 1.56D-08 at cycle  15 NSaved=  15.
 NSaved=15 IEnMin=15 EnMin= -709.888329492071     IErMin=15 ErrMin= 1.56D-08
 ErrMax= 1.56D-08  0.00D+00 EMaxC= 1.00D-01 BMatC= 9.23D-14 BMatP= 9.18D-13
 IDIUse=1 WtCom= 1.00D+00 WtEn= 0.00D+00
 Coeff-Com:  0.344D-06-0.106D-05-0.281D-05-0.406D-05 0.153D-05 0.254D-04
 Coeff-Com:  0.121D-03 0.500D-03-0.629D-04-0.228D-02-0.884D-02-0.322D-01
 Coeff-Com:  0.227D-01 0.263D+00 0.757D+00
 Coeff:      0.344D-06-0.106D-05-0.281D-05-0.406D-05 0.153D-05 0.254D-04
 Coeff:      0.121D-03 0.500D-03-0.629D-04-0.228D-02-0.884D-02-0.322D-01
 Coeff:      0.227D-01 0.263D+00 0.757D+00
 Gap=     0.188 Goal=   None    Shift=    0.000
 RMSDP=9.60D-09 MaxDP=6.91D-07 DE=-1.09D-11 OVMax= 1.47D-07

 SCF Done:  E(RMN15) =  -709.888329492     A.U. after   15 cycles
            NFock= 15  Conv=0.96D-08     -V/T= 2.0037
 KE= 7.072731978083D+02 PE=-3.835720810643D+03 EE= 1.326492260036D+03
 Leave Link  502 at Tue Dec  5 10:02:05 2023, MaxMem=  2147483648 cpu:            2182.3 elap:              84.9
 (Enter /opt/gaussian/g16-c01/g16/l601.exe)
 Copying SCF densities to generalized density rwf, IOpCl= 0 IROHF=0.

 **********************************************************************

            Population analysis using the SCF Density.

 **********************************************************************

 Orbital symmetries:
       Occupied  (A) (A) (A) (A) (A) (A) (A) (A) (A) (A) (A) (A)
                 (A) (A) (A) (A) (A) (A) (A) (A) (A) (A) (A) (A)
                 (A) (A) (A) (A) (A) (A) (A) (A) (A) (A) (A) (A)
                 (A) (A) (A) (A) (A) (A) (A) (A) (A) (A) (A) (A)
                 (A) (A) (A) (A) (A) (A) (A) (A) (A) (A) (A) (A)
       Virtual   (A) (A) (A) (A) (A) (A) (A) (A) (A) (A) (A) (A)
                 (A) (A) (A) (A) (A) (A) (A) (A) (A) (A) (A) (A)
                 (A) (A) (A) (A) (A) (A) (A) (A) (A) (A) (A) (A)
                 (A) (A) (A) (A) (A) (A) (A) (A) (A) (A) (A) (A)
                 (A) (A) (A) (A) (A) (A) (A) (A) (A) (A) (A) (A)
                 (A) (A) (A) (A) (A) (A) (A) (A) (A) (A) (A) (A)
                 (A) (A) (A) (A) (A) (A) (A) (A) (A) (A) (A) (A)
                 (A) (A) (A) (A) (A) (A) (A) (A) (A) (A) (A) (A)
                 (A) (A) (A) (A) (A) (A) (A) (A) (A) (A) (A) (A)
                 (A) (A) (A) (A) (A) (A) (A) (A) (A) (A) (A) (A)
                 (A) (A) (A) (A) (A) (A) (A) (A) (A) (A) (A) (A)
                 (A) (A) (A) (A) (A) (A) (A) (A) (A) (A) (A) (A)
                 (A) (A) (A) (A) (A) (A) (A) (A) (A) (A) (A) (A)
                 (A) (A) (A) (A) (A) (A) (A) (A) (A) (A) (A) (A)
                 (A) (A) (A) (A) (A) (A) (A) (A) (A) (A) (A) (A)
                 (A) (A) (A) (A) (A) (A) (A) (A) (A) (A) (A) (A)
                 (A) (A) (A) (A) (A) (A) (A) (A) (A) (A) (A) (A)
                 (A) (A) (A) (A) (A) (A) (A) (A) (A) (A) (A) (A)
                 (A) (A) (A) (A) (A) (A) (A) (A) (A) (A) (A) (A)
                 (A) (A) (A) (A) (A) (A) (A) (A) (A) (A) (A) (A)
                 (A) (A) (A) (A) (A) (A) (A) (A) (A) (A) (A) (A)
                 (A) (A) (A) (A) (A) (A) (A) (A) (A) (A) (A) (A)
                 (A) (A) (A) (A) (A) (A) (A) (A) (A) (A) (A) (A)
                 (A) (A) (A) (A) (A) (A) (A) (A) (A) (A) (A) (A)
                 (A) (A) (A) (A) (A) (A) (A) (A) (A) (A) (A) (A)
                 (A) (A) (A) (A) (A) (A) (A) (A) (A) (A) (A) (A)
                 (A) (A) (A) (A) (A) (A) (A) (A) (A) (A) (A) (A)
                 (A) (A) (A) (A) (A) (A) (A) (A) (A) (A) (A) (A)
                 (A) (A) (A) (A) (A) (A) (A) (A) (A) (A) (A) (A)
                 (A) (A) (A) (A) (A) (A) (A) (A) (A) (A) (A) (A)
                 (A) (A) (A) (A) (A) (A) (A) (A) (A) (A) (A) (A)
                 (A) (A) (A) (A) (A) (A) (A) (A) (A) (A) (A) (A)
                 (A) (A) (A) (A) (A) (A) (A) (A) (A) (A) (A) (A)
                 (A) (A) (A) (A) (A) (A) (A) (A) (A) (A) (A) (A)
                 (A) (A) (A) (A) (A) (A) (A)
 The electronic state is 1-A.
 Alpha  occ. eigenvalues --  -18.78484 -14.10540 -10.12381 -10.08754 -10.07195
 Alpha  occ. eigenvalues --  -10.07192 -10.05713 -10.05618 -10.05434 -10.05304
 Alpha  occ. eigenvalues --  -10.05244 -10.05204 -10.04612 -10.04610 -10.03960
 Alpha  occ. eigenvalues --  -10.03958 -10.03733  -1.06886  -0.99218  -0.91748
 Alpha  occ. eigenvalues --   -0.90471  -0.82389  -0.80236  -0.80168  -0.79688
 Alpha  occ. eigenvalues --   -0.76905  -0.71972  -0.68175  -0.65772  -0.65706
 Alpha  occ. eigenvalues --   -0.63095  -0.60662  -0.58481  -0.55345  -0.53521
 Alpha  occ. eigenvalues --   -0.52493  -0.51645  -0.50494  -0.49645  -0.48790
 Alpha  occ. eigenvalues --   -0.47987  -0.47330  -0.47112  -0.47093  -0.45499
 Alpha  occ. eigenvalues --   -0.44088  -0.44077  -0.42121  -0.42046  -0.41249
 Alpha  occ. eigenvalues --   -0.40283  -0.40215  -0.38970  -0.38399  -0.33199
 Alpha  occ. eigenvalues --   -0.30347  -0.29774  -0.29378  -0.29107  -0.23152
 Alpha virt. eigenvalues --   -0.04314  -0.00214   0.01233   0.02483   0.02867
 Alpha virt. eigenvalues --    0.03486   0.04350   0.04783   0.05103   0.06132
 Alpha virt. eigenvalues --    0.06179   0.06409   0.06458   0.07154   0.07880
 Alpha virt. eigenvalues --    0.08305   0.08657   0.08810   0.09496   0.10377
 Alpha virt. eigenvalues --    0.10981   0.11306   0.11877   0.12507   0.12528
 Alpha virt. eigenvalues --    0.12892   0.13311   0.13767   0.13925   0.14219
 Alpha virt. eigenvalues --    0.14833   0.15002   0.15031   0.15408   0.15657
 Alpha virt. eigenvalues --    0.15863   0.15973   0.16265   0.16571   0.17224
 Alpha virt. eigenvalues --    0.17422   0.17847   0.17880   0.18426   0.18462
 Alpha virt. eigenvalues --    0.18985   0.19144   0.19400   0.19744   0.19779
 Alpha virt. eigenvalues --    0.20070   0.20130   0.20550   0.20815   0.21509
 Alpha virt. eigenvalues --    0.21764   0.22014   0.22622   0.22858   0.23242
 Alpha virt. eigenvalues --    0.23747   0.23960   0.25442   0.25502   0.25894
 Alpha virt. eigenvalues --    0.26792   0.26963   0.27484   0.27574   0.27973
 Alpha virt. eigenvalues --    0.28084   0.28347   0.28630   0.29191   0.29553
 Alpha virt. eigenvalues --    0.29949   0.30136   0.30369   0.30631   0.31290
 Alpha virt. eigenvalues --    0.31605   0.31623   0.31836   0.32500   0.32524
 Alpha virt. eigenvalues --    0.32976   0.34002   0.34712   0.34831   0.34880
 Alpha virt. eigenvalues --    0.35342   0.35949   0.35969   0.36657   0.37382
 Alpha virt. eigenvalues --    0.37698   0.38217   0.38471   0.38630   0.38924
 Alpha virt. eigenvalues --    0.40215   0.40452   0.40926   0.41001   0.41871
 Alpha virt. eigenvalues --    0.42062   0.42314   0.43679   0.44313   0.45299
 Alpha virt. eigenvalues --    0.47050   0.49385   0.50210   0.51106   0.51836
 Alpha virt. eigenvalues --    0.52783   0.53693   0.54333   0.54576   0.56153
 Alpha virt. eigenvalues --    0.56189   0.57791   0.57930   0.58308   0.58457
 Alpha virt. eigenvalues --    0.60299   0.60309   0.60927   0.61553   0.62376
 Alpha virt. eigenvalues --    0.62437   0.63814   0.63972   0.65045   0.65243
 Alpha virt. eigenvalues --    0.65277   0.65427   0.66913   0.67340   0.67949
 Alpha virt. eigenvalues --    0.69233   0.70094   0.70388   0.70430   0.71178
 Alpha virt. eigenvalues --    0.71679   0.71937   0.73037   0.73511   0.73902
 Alpha virt. eigenvalues --    0.74649   0.75215   0.75783   0.76160   0.76302
 Alpha virt. eigenvalues --    0.76471   0.77545   0.78584   0.78597   0.79018
 Alpha virt. eigenvalues --    0.80671   0.81757   0.82254   0.83842   0.84509
 Alpha virt. eigenvalues --    0.86331   0.87043   0.87156   0.88525   0.89203
 Alpha virt. eigenvalues --    0.89776   0.90569   0.91495   0.91889   0.92728
 Alpha virt. eigenvalues --    0.93811   0.94268   0.94429   0.94693   0.95553
 Alpha virt. eigenvalues --    0.96913   0.97773   0.98682   0.98828   0.99703
 Alpha virt. eigenvalues --    1.02308   1.02694   1.02929   1.03526   1.04840
 Alpha virt. eigenvalues --    1.05723   1.06279   1.07485   1.07803   1.08992
 Alpha virt. eigenvalues --    1.09455   1.09767   1.11239   1.11468   1.12252
 Alpha virt. eigenvalues --    1.14361   1.14864   1.15864   1.17623   1.19025
 Alpha virt. eigenvalues --    1.23857   1.24356   1.30971   1.31188   1.32816
 Alpha virt. eigenvalues --    1.34965   1.36618   1.37859   1.39743   1.41781
 Alpha virt. eigenvalues --    1.42411   1.45066   1.47495   1.47546   1.49435
 Alpha virt. eigenvalues --    1.50771   1.51559   1.52179   1.52597   1.54586
 Alpha virt. eigenvalues --    1.54865   1.56601   1.56834   1.57261   1.58144
 Alpha virt. eigenvalues --    1.58576   1.58687   1.59002   1.59400   1.59789
 Alpha virt. eigenvalues --    1.60033   1.61071   1.63402   1.64234   1.65864
 Alpha virt. eigenvalues --    1.66803   1.67329   1.68919   1.69667   1.70639
 Alpha virt. eigenvalues --    1.71978   1.72642   1.74308   1.74473   1.76191
 Alpha virt. eigenvalues --    1.77117   1.77213   1.77917   1.78822   1.78871
 Alpha virt. eigenvalues --    1.79717   1.80437   1.84045   1.84891   1.87230
 Alpha virt. eigenvalues --    1.88084   1.89629   1.90149   1.90718   1.90827
 Alpha virt. eigenvalues --    1.91563   1.94171   1.94234   1.94766   1.95743
 Alpha virt. eigenvalues --    1.96132   1.98476   1.99265   1.99989   2.00829
 Alpha virt. eigenvalues --    2.01695   2.02908   2.04435   2.05681   2.06351
 Alpha virt. eigenvalues --    2.07459   2.07959   2.09042   2.11858   2.12529
 Alpha virt. eigenvalues --    2.14917   2.15925   2.18177   2.20512   2.20932
 Alpha virt. eigenvalues --    2.22625   2.25905   2.26713   2.27174   2.29572
 Alpha virt. eigenvalues --    2.31619   2.35165   2.39355   2.41207   2.42375
 Alpha virt. eigenvalues --    2.42853   2.43251   2.43408   2.44895   2.45196
 Alpha virt. eigenvalues --    2.45310   2.45636   2.46365   2.47769   2.53187
 Alpha virt. eigenvalues --    2.57928   2.58021   2.59745   2.59866   2.62583
 Alpha virt. eigenvalues --    2.62701   2.64267   2.64897   2.65403   2.65986
 Alpha virt. eigenvalues --    2.68296   2.69331   2.70200   2.70659   2.71478
 Alpha virt. eigenvalues --    2.71587   2.72180   2.72837   2.73704   2.74447
 Alpha virt. eigenvalues --    2.76938   2.77521   2.78292   2.79097   2.81073
 Alpha virt. eigenvalues --    2.81996   2.82063   2.82927   2.84652   2.85555
 Alpha virt. eigenvalues --    2.87565   2.88102   2.88657   2.88734   2.90061
 Alpha virt. eigenvalues --    2.90761   2.91442   2.91749   2.98073   3.02250
 Alpha virt. eigenvalues --    3.03196   3.05254   3.09190   3.12711   3.12772
 Alpha virt. eigenvalues --    3.17673   3.19576   3.22119   3.25522   3.31515
 Alpha virt. eigenvalues --    3.32232   3.32735   3.34142   3.35301   3.43879
 Alpha virt. eigenvalues --    3.44836   3.44891   3.48275   3.49536   3.52030
 Alpha virt. eigenvalues --    3.57111   3.57724   3.62010   3.65233   3.67198
 Alpha virt. eigenvalues --    3.67879   3.73202   3.74278   3.74736   3.82532
 Alpha virt. eigenvalues --    3.90653   3.92681   3.93542   3.95827   3.97249
 Alpha virt. eigenvalues --    4.06172   4.07940   4.08309   4.14292   4.17680
 Alpha virt. eigenvalues --    4.34910   4.72047   4.74363   4.83501   4.95881
 Alpha virt. eigenvalues --    5.04092   5.18535   5.66978  22.51901  22.60868
 Alpha virt. eigenvalues --   22.78696  22.81206  22.84733  22.85571  22.86333
 Alpha virt. eigenvalues --   22.87158  22.88807  22.95738  22.97053  22.99357
 Alpha virt. eigenvalues --   23.00368  23.05844  23.10900  33.88294  47.56290
          Condensed to atoms (all electrons):
               1          2          3          4          5          6
     1  O    7.991155  -0.000247  -0.028635  -0.035979  -0.033892  -0.033348
     2  N   -0.000247   7.033857   0.319081   0.004444  -0.204890  -0.204079
     3  C   -0.028635   0.319081   7.834454  -0.322023   0.670617   0.673778
     4  C   -0.035979   0.004444  -0.322023  11.719191  -1.735238  -1.735852
     5  C   -0.033892  -0.204890   0.670617  -1.735238   7.700854  -0.759995
     6  C   -0.033348  -0.204079   0.673778  -1.735852  -0.759995   7.709306
     7  C   -0.044672  -0.017534  -1.147076   0.520854   0.869539  -0.664670
     8  C   -0.043443  -0.015340  -1.157005   0.535728  -0.663120   0.862231
     9  C    0.504357  -0.007991  -0.041293   1.896072  -0.428061  -0.430652
    10  C   -0.169486  -0.007030  -0.438105  -3.943959  -0.026449  -0.022492
    11  C   -0.000384   0.284398  -0.035353  -0.082425   0.005111   0.035349
    12  C   -0.000372   0.284340  -0.033578  -0.081850   0.035461   0.003936
    13  C   -0.159800   0.003672   0.159337  -0.457640   0.127356   0.119071
    14  C    0.231447   0.000253  -0.021349  -0.779548   0.037503   0.042503
    15  C   -0.035050   0.001204   0.145301   0.486322   0.040064   0.039520
    16  C    0.088353  -0.000083  -0.013769  -0.691886   0.016761   0.016933
    17  C   -0.004029  -0.000023   0.009240   0.117995   0.005870   0.005648
    18  H   -0.000089  -0.061454  -0.065605  -0.025891   0.374577   0.006854
    19  H   -0.000089  -0.061718  -0.065143  -0.025650   0.006918   0.373783
    20  H   -0.001354  -0.004835   0.012727   0.074004  -0.120850   0.036068
    21  H   -0.001321  -0.004795   0.011764   0.074193   0.035696  -0.120794
    22  H   -0.000010  -0.072753   0.033668  -0.005641  -0.041605   0.018951
    23  H   -0.000008  -0.068655  -0.002487   0.008971   0.050260  -0.026791
    24  H    0.000020  -0.072761  -0.042775   0.002057   0.064208  -0.023999
    25  H   -0.000009  -0.072823   0.034099  -0.005447   0.018789  -0.041760
    26  H    0.000020  -0.072840  -0.042798   0.002337  -0.023224   0.062914
    27  H   -0.000009  -0.068506  -0.002739   0.008536  -0.027293   0.051617
    28  H   -0.003266   0.002940   0.001677  -0.024421   0.015260   0.014710
    29  H    0.013527   0.000042  -0.000026   0.026540   0.000713   0.000718
    30  H    0.000519  -0.000025   0.000330  -0.001656  -0.000841  -0.000802
    31  H    0.002075  -0.000003  -0.000129  -0.014434   0.000445   0.000448
    32  H    0.000018   0.000005   0.000109   0.002684  -0.000033  -0.000037
               7          8          9         10         11         12
     1  O   -0.044672  -0.043443   0.504357  -0.169486  -0.000384  -0.000372
     2  N   -0.017534  -0.015340  -0.007991  -0.007030   0.284398   0.284340
     3  C   -1.147076  -1.157005  -0.041293  -0.438105  -0.035353  -0.033578
     4  C    0.520854   0.535728   1.896072  -3.943959  -0.082425  -0.081850
     5  C    0.869539  -0.663120  -0.428061  -0.026449   0.005111   0.035461
     6  C   -0.664670   0.862231  -0.430652  -0.022492   0.035349   0.003936
     7  C    8.102106  -0.936409  -0.450088  -0.498278  -0.090031   0.055146
     8  C   -0.936409   8.111230  -0.452029  -0.509183   0.054996  -0.090826
     9  C   -0.450088  -0.452029   9.427133  -2.267295  -0.011282  -0.011491
    10  C   -0.498278  -0.509183  -2.267295  17.966835  -0.012555  -0.012286
    11  C   -0.090031   0.054996  -0.011282  -0.012555   4.934227  -0.065209
    12  C    0.055146  -0.090826  -0.011491  -0.012286  -0.065209   4.934473
    13  C    0.131379   0.124636   0.230588  -1.154308   0.005478   0.005271
    14  C    0.044543   0.051324  -1.892763   1.139168  -0.000668  -0.000598
    15  C    0.095259   0.097961   0.747247  -4.130869   0.002912   0.002874
    16  C   -0.002961  -0.003927  -1.248503   0.356912  -0.000035  -0.000035
    17  C    0.017149   0.017303   0.387102  -0.692767   0.000212   0.000203
    18  H   -0.000374   0.022389  -0.008546   0.003525   0.026819   0.002025
    19  H    0.022489  -0.000524  -0.008503   0.003661   0.002211   0.026663
    20  H    0.269354   0.046711  -0.013216   0.030992  -0.000876   0.000350
    21  H    0.046838   0.269879  -0.012987   0.031625   0.000284  -0.000944
    22  H   -0.015319   0.012176  -0.000536  -0.000229   0.414713  -0.009516
    23  H    0.001327  -0.008650  -0.000546   0.000078   0.391843   0.008429
    24  H    0.026524  -0.013763   0.002304   0.001070   0.388210   0.008574
    25  H    0.012169  -0.015400  -0.000553  -0.000195  -0.009495   0.414760
    26  H   -0.013314   0.026974   0.002293   0.000990   0.009022   0.386634
    27  H   -0.009027   0.000831  -0.000530   0.000089   0.007901   0.393326
    28  H   -0.002904  -0.002959   0.000772  -0.107594  -0.000361  -0.000352
    29  H    0.005024   0.005132   0.051506  -0.087496  -0.000006  -0.000006
    30  H    0.000022   0.000063  -0.010777   0.043237  -0.000010  -0.000009
    31  H    0.000172   0.000144  -0.033449   0.012700   0.000001   0.000001
    32  H   -0.000316  -0.000316   0.013254   0.022891   0.000002   0.000002
              13         14         15         16         17         18
     1  O   -0.159800   0.231447  -0.035050   0.088353  -0.004029  -0.000089
     2  N    0.003672   0.000253   0.001204  -0.000083  -0.000023  -0.061454
     3  C    0.159337  -0.021349   0.145301  -0.013769   0.009240  -0.065605
     4  C   -0.457640  -0.779548   0.486322  -0.691886   0.117995  -0.025891
     5  C    0.127356   0.037503   0.040064   0.016761   0.005870   0.374577
     6  C    0.119071   0.042503   0.039520   0.016933   0.005648   0.006854
     7  C    0.131379   0.044543   0.095259  -0.002961   0.017149  -0.000374
     8  C    0.124636   0.051324   0.097961  -0.003927   0.017303   0.022389
     9  C    0.230588  -1.892763   0.747247  -1.248503   0.387102  -0.008546
    10  C   -1.154308   1.139168  -4.130869   0.356912  -0.692767   0.003525
    11  C    0.005478  -0.000668   0.002912  -0.000035   0.000212   0.026819
    12  C    0.005271  -0.000598   0.002874  -0.000035   0.000203   0.002025
    13  C   11.753340  -3.814895  -1.280905   0.916460  -0.602031  -0.002471
    14  C   -3.814895  10.632855   0.249829   0.478034  -0.668165  -0.001923
    15  C   -1.280905   0.249829   9.242915  -0.997432   1.225851  -0.002547
    16  C    0.916460   0.478034  -0.997432   7.168901   0.136101   0.000489
    17  C   -0.602031  -0.668165   1.225851   0.136101   5.716742   0.000364
    18  H   -0.002471  -0.001923  -0.002547   0.000489   0.000364   0.655115
    19  H   -0.002520  -0.001895  -0.002607   0.000499   0.000362  -0.004531
    20  H   -0.043073   0.007232  -0.007168  -0.003240   0.002020  -0.029838
    21  H   -0.043240   0.007258  -0.007167  -0.003303   0.001977   0.003791
    22  H    0.000048  -0.000015   0.000043   0.000002   0.000005   0.002732
    23  H   -0.000144   0.000087   0.000197  -0.000018  -0.000002  -0.010370
    24  H   -0.000100  -0.000004  -0.000599   0.000018  -0.000042   0.001802
    25  H    0.000023  -0.000009   0.000037   0.000002   0.000004   0.001678
    26  H   -0.000061  -0.000019  -0.000570   0.000017  -0.000040   0.000594
    27  H   -0.000150   0.000089   0.000195  -0.000018  -0.000002  -0.001929
    28  H    0.535784  -0.078860  -0.094499   0.060251   0.000509  -0.001431
    29  H   -0.027428   0.428898   0.058382  -0.175825   0.013019  -0.000029
    30  H   -0.160239   0.079633   0.432051  -0.014048  -0.057939  -0.000038
    31  H    0.052754  -0.096130  -0.042103   0.513541  -0.078210   0.000013
    32  H   -0.051929  -0.045950  -0.057933  -0.075702   0.504184  -0.000005
              19         20         21         22         23         24
     1  O   -0.000089  -0.001354  -0.001321  -0.000010  -0.000008   0.000020
     2  N   -0.061718  -0.004835  -0.004795  -0.072753  -0.068655  -0.072761
     3  C   -0.065143   0.012727   0.011764   0.033668  -0.002487  -0.042775
     4  C   -0.025650   0.074004   0.074193  -0.005641   0.008971   0.002057
     5  C    0.006918  -0.120850   0.035696  -0.041605   0.050260   0.064208
     6  C    0.373783   0.036068  -0.120794   0.018951  -0.026791  -0.023999
     7  C    0.022489   0.269354   0.046838  -0.015319   0.001327   0.026524
     8  C   -0.000524   0.046711   0.269879   0.012176  -0.008650  -0.013763
     9  C   -0.008503  -0.013216  -0.012987  -0.000536  -0.000546   0.002304
    10  C    0.003661   0.030992   0.031625  -0.000229   0.000078   0.001070
    11  C    0.002211  -0.000876   0.000284   0.414713   0.391843   0.388210
    12  C    0.026663   0.000350  -0.000944  -0.009516   0.008429   0.008574
    13  C   -0.002520  -0.043073  -0.043240   0.000048  -0.000144  -0.000100
    14  C   -0.001895   0.007232   0.007258  -0.000015   0.000087  -0.000004
    15  C   -0.002607  -0.007168  -0.007167   0.000043   0.000197  -0.000599
    16  C    0.000499  -0.003240  -0.003303   0.000002  -0.000018   0.000018
    17  C    0.000362   0.002020   0.001977   0.000005  -0.000002  -0.000042
    18  H   -0.004531  -0.029838   0.003791   0.002732  -0.010370   0.001802
    19  H    0.655205   0.003795  -0.029827   0.001746  -0.001915   0.000549
    20  H    0.003795   0.604290  -0.006317   0.000183  -0.000075   0.000150
    21  H   -0.029827  -0.006317   0.604085   0.000094  -0.000044  -0.000353
    22  H    0.001746   0.000183   0.000094   0.629967  -0.042265  -0.041927
    23  H   -0.001915  -0.000075  -0.000044  -0.042265   0.627455  -0.052702
    24  H    0.000549   0.000150  -0.000353  -0.041927  -0.052702   0.632708
    25  H    0.002647   0.000103   0.000180   0.016649  -0.000304   0.001102
    26  H    0.001925  -0.000352   0.000141   0.001264   0.004108  -0.008582
    27  H   -0.010362  -0.000051  -0.000071  -0.000484  -0.007253   0.004144
    28  H   -0.001445  -0.000891  -0.000866  -0.000098   0.000164  -0.000328
    29  H   -0.000030  -0.001287  -0.001278  -0.000001   0.000003  -0.000003
    30  H   -0.000038  -0.000261  -0.000256   0.000001   0.000004  -0.000004
    31  H    0.000013   0.000001   0.000001   0.000000   0.000000  -0.000000
    32  H   -0.000005   0.000003   0.000003  -0.000000  -0.000000  -0.000000
              25         26         27         28         29         30
     1  O   -0.000009   0.000020  -0.000009  -0.003266   0.013527   0.000519
     2  N   -0.072823  -0.072840  -0.068506   0.002940   0.000042  -0.000025
     3  C    0.034099  -0.042798  -0.002739   0.001677  -0.000026   0.000330
     4  C   -0.005447   0.002337   0.008536  -0.024421   0.026540  -0.001656
     5  C    0.018789  -0.023224  -0.027293   0.015260   0.000713  -0.000841
     6  C   -0.041760   0.062914   0.051617   0.014710   0.000718  -0.000802
     7  C    0.012169  -0.013314  -0.009027  -0.002904   0.005024   0.000022
     8  C   -0.015400   0.026974   0.000831  -0.002959   0.005132   0.000063
     9  C   -0.000553   0.002293  -0.000530   0.000772   0.051506  -0.010777
    10  C   -0.000195   0.000990   0.000089  -0.107594  -0.087496   0.043237
    11  C   -0.009495   0.009022   0.007901  -0.000361  -0.000006  -0.000010
    12  C    0.414760   0.386634   0.393326  -0.000352  -0.000006  -0.000009
    13  C    0.000023  -0.000061  -0.000150   0.535784  -0.027428  -0.160239
    14  C   -0.000009  -0.000019   0.000089  -0.078860   0.428898   0.079633
    15  C    0.000037  -0.000570   0.000195  -0.094499   0.058382   0.432051
    16  C    0.000002   0.000017  -0.000018   0.060251  -0.175825  -0.014048
    17  C    0.000004  -0.000040  -0.000002   0.000509   0.013019  -0.057939
    18  H    0.001678   0.000594  -0.001929  -0.001431  -0.000029  -0.000038
    19  H    0.002647   0.001925  -0.010362  -0.001445  -0.000030  -0.000038
    20  H    0.000103  -0.000352  -0.000051  -0.000891  -0.001287  -0.000261
    21  H    0.000180   0.000141  -0.000071  -0.000866  -0.001278  -0.000256
    22  H    0.016649   0.001264  -0.000484  -0.000098  -0.000001   0.000001
    23  H   -0.000304   0.004108  -0.007253   0.000164   0.000003   0.000004
    24  H    0.001102  -0.008582   0.004144  -0.000328  -0.000003  -0.000004
    25  H    0.629937  -0.042755  -0.041446  -0.000093  -0.000001   0.000001
    26  H   -0.042755   0.633664  -0.052672  -0.000305  -0.000003  -0.000005
    27  H   -0.041446  -0.052672   0.626336   0.000154   0.000003   0.000004
    28  H   -0.000093  -0.000305   0.000154   0.595708  -0.004713  -0.026167
    29  H   -0.000001  -0.000003   0.000003  -0.004713   0.536406   0.001638
    30  H    0.000001  -0.000005   0.000004  -0.026167   0.001638   0.593481
    31  H    0.000000  -0.000000   0.000000   0.000697  -0.024555  -0.001578
    32  H   -0.000000  -0.000000  -0.000000  -0.000378  -0.000330  -0.024976
              31         32
     1  O    0.002075   0.000018
     2  N   -0.000003   0.000005
     3  C   -0.000129   0.000109
     4  C   -0.014434   0.002684
     5  C    0.000445  -0.000033
     6  C    0.000448  -0.000037
     7  C    0.000172  -0.000316
     8  C    0.000144  -0.000316
     9  C   -0.033449   0.013254
    10  C    0.012700   0.022891
    11  C    0.000001   0.000002
    12  C    0.000001   0.000002
    13  C    0.052754  -0.051929
    14  C   -0.096130  -0.045950
    15  C   -0.042103  -0.057933
    16  C    0.513541  -0.075702
    17  C   -0.078210   0.504184
    18  H    0.000013  -0.000005
    19  H    0.000013  -0.000005
    20  H    0.000001   0.000003
    21  H    0.000001   0.000003
    22  H    0.000000  -0.000000
    23  H    0.000000  -0.000000
    24  H   -0.000000  -0.000000
    25  H    0.000000  -0.000000
    26  H   -0.000000  -0.000000
    27  H    0.000000  -0.000000
    28  H    0.000697  -0.000378
    29  H   -0.024555  -0.000330
    30  H   -0.001578  -0.024976
    31  H    0.601103  -0.027315
    32  H   -0.027315   0.614546
 Mulliken charges:
               1
     1  O   -0.235998
     2  N    0.084150
     3  C   -0.446294
     4  C    0.489614
     5  C   -0.010511
     6  C   -0.009066
     7  C   -0.326920
     8  C   -0.326813
     9  C    0.068463
    10  C    0.466800
    11  C   -0.254998
    12  C   -0.255396
    13  C   -0.364264
    14  C   -0.027865
    15  C   -0.208714
    16  C   -0.522491
    17  C   -0.058610
    18  H    0.114304
    19  H    0.114336
    20  H    0.145702
    21  H    0.145753
    22  H    0.098155
    23  H    0.129305
    24  H    0.124503
    25  H    0.098111
    26  H    0.124645
    27  H    0.129316
    28  H    0.123306
    29  H    0.181467
    30  H    0.148688
    31  H    0.133798
    32  H    0.127524
 Sum of Mulliken charges =  -0.00000
 Mulliken charges with hydrogens summed into heavy atoms:
               1
     1  O   -0.235998
     2  N    0.084150
     3  C   -0.446294
     4  C    0.489614
     5  C    0.103793
     6  C    0.105270
     7  C   -0.181218
     8  C   -0.181060
     9  C    0.068463
    10  C    0.466800
    11  C    0.096965
    12  C    0.096676
    13  C   -0.240958
    14  C    0.153603
    15  C   -0.060026
    16  C   -0.388693
    17  C    0.068914
 Electronic spatial extent (au):  <R**2>=           5520.4156
 Charge=             -0.0000 electrons
 Dipole moment (field-independent basis, Debye):
    X=             -1.9955    Y=             -3.9039    Z=             -0.0131  Tot=              4.3843
[...]
 8,0.00056723,-0.00047496,0.00009816,-0.00015285,0.00009160,-0.00001916
 ,0.00003295,-0.00002892,-0.00182975,-0.00164175,0.00131773,-0.04773449
 ,0.00597768,0.00206686,-0.00000318,0.00001405,0.00000455,0.00000492,-0
 .00000779,-0.00000076,0.00001196,-0.00000484,0.00000557,-0.00000450,-0
 .00000267,-0.00000565,-0.00000595,0.00000705,0.00000670,0.00002293,-0.
 00013734,0.00007899,-0.00150305,-0.00117785,0.00103650,0.00001262,-0.0
 0005975,0.00000543,-0.00002779,-0.00000705,0.00000373,0.00030919,0.000
 06117,-0.00030221,-0.00005208,0.00007443,0.00003607,0.00048793,-0.0005
 0146,-0.00084357,0.00149170,0.02802748,0.00286414,0.00026987,-0.006710
 74,0.00057561,0.05086982,-0.00026656,0.00027743,0.00037079,-0.00890861
 ,-0.00022278,-0.00953726,0.00383886,-0.00030675,-0.00138104,-0.0011829
 0,-0.00010453,-0.00025088,-0.00086239,-0.00017515,-0.00029350,-0.00142
 770,-0.00012590,-0.00013691,0.00029444,-0.00001386,0.00018300,0.001237
 94,-0.00008296,0.00057723,0.00089255,-0.00017550,-0.00033964,-0.000030
 03,-0.00001966,-0.00001506,-0.00098072,-0.00156671,0.00160193,0.005340
 99,-0.29911327,-0.03429225,-0.00001719,0.00000639,0.00000932,0.0000105
 7,-0.00002749,-0.00001290,-0.00001412,0.00001477,-0.00001380,-0.000001
 02,-0.00000784,-0.00000471,-0.00001120,-0.00000891,-0.00000283,0.00007
 771,0.00000750,0.00007311,0.00021155,0.00036483,0.00050573,-0.00003036
 ,-0.00000530,-0.00000513,-0.00005223,0.00002333,0.00001580,-0.00009191
 ,-0.00002669,-0.00000106,-0.00003076,-0.00002415,-0.00013565,-0.000079
 16,-0.00035528,-0.00061620,0.00018997,-0.00634974,0.00022430,0.0018817
 9,-0.01568093,-0.00162297,0.00001530,0.32368828,-0.00022844,0.00018505
 ,0.00023510,-0.00681422,-0.02525305,-0.01023227,0.00366953,-0.00073468
 ,-0.00031975,-0.00085159,0.00001727,0.00002337,-0.00065886,0.00023038,
 -0.00068417,-0.00057515,0.00081926,0.00093934,0.00031685,0.00002812,-0
 .00002708,0.00042071,0.00001030,-0.00008056,0.00066551,-0.00016960,-0.
 00022796,-0.00005610,-0.00000339,-0.00001167,-0.00202824,-0.00191044,0
 .00053659,0.00133230,-0.03377656,-0.05179890,-0.00002613,0.00000913,0.
 00001478,0.00000923,-0.00003289,-0.00001910,-0.00001071,0.00001470,-0.
 00000972,-0.00000429,-0.00000974,-0.00000363,-0.00001260,-0.00000659,-
 0.00000616,0.00003663,-0.00008925,0.00004452,0.00028413,0.00024244,-0.
 00019303,-0.00002080,-0.00004506,-0.00000602,0.00000040,0.00001193,0.0
 0001618,-0.00007767,0.00005303,-0.00004260,-0.00011379,0.00000857,-0.0
 0014412,-0.00007928,-0.00052786,-0.00119661,-0.00007281,-0.01133691,-0
 .00161294,-0.00040430,0.02716045,0.00426690,0.00530234,0.04509336,0.06
 053797,0.00027141,0.00071938,0.00064544,0.00016863,-0.00001282,-0.0000
 0226,-0.00030092,-0.00006531,-0.00045879,-0.00048399,-0.00072346,-0.00
 044741,0.00038261,-0.00011064,0.00014623,-0.00034218,0.00005734,0.0001
 7684,-0.00160162,-0.00142938,0.00117111,0.00053404,0.00032854,0.000174
 35,-0.00108749,-0.00099921,0.00042012,0.00204812,0.00043253,0.00001314
 ,-0.00000852,0.00001719,0.00005700,-0.00002055,0.00001037,-0.00003357,
 -0.24713851,0.12642617,-0.05655906,0.00236240,0.00012851,-0.00160007,-
 0.01385098,0.01446971,-0.00397997,0.00003658,-0.00095506,0.00015786,-0
 .00138656,-0.00244249,-0.00398972,0.00002126,-0.00001198,0.00000439,0.
 00000212,-0.00003933,0.00003215,-0.00046772,-0.00049953,0.00004275,0.0
 0000333,0.00001990,0.00000404,0.00000961,0.00000153,0.00000098,-0.0000
 1113,0.00000280,-0.00000812,-0.00001359,-0.00000202,-0.00000354,0.0000
 0702,0.00000105,0.00000008,0.00000638,-0.00000139,0.00000980,0.0000120
 7,0.00000484,0.00000759,0.26146157,-0.00040651,0.00014148,-0.00004919,
 0.00042640,-0.00010224,-0.00005875,-0.00034921,0.00010953,0.00026287,-
 0.00043603,0.00000286,-0.00034522,-0.00007718,0.00009557,0.00011327,0.
 00033544,-0.00016444,-0.00013897,-0.00064944,-0.00020546,0.00006075,-0
 .00058334,0.00016125,-0.00019422,0.00150049,0.00069271,0.00149126,0.02
 505651,-0.01036220,0.00694131,-0.00000709,0.00006584,0.00012233,-0.000
 06671,-0.00003378,-0.00011535,0.12579229,-0.13686037,0.02771110,-0.000
 13076,-0.00488884,-0.00304177,-0.01287369,0.01110388,-0.00350390,-0.00
 086000,-0.00080212,-0.00027524,-0.00238760,-0.00002516,-0.00263739,0.0
 0001851,0.00001416,-0.00003841,0.00001087,-0.00000629,0.00001662,-0.00
 002839,-0.00034299,0.00051242,0.00004652,-0.00000815,0.00003698,0.0000
 2611,-0.00000252,0.00000055,-0.00001421,-0.00000466,-0.00002606,-0.000
 01688,-0.00001228,-0.00002075,0.00002471,-0.00000358,-0.00000807,-0.00
 001156,0.00000492,0.00002664,-0.00000546,0.00001868,0.00002205,-0.1352
 3279,0.14113464,-0.00025201,-0.00111426,-0.00043426,0.00018419,-0.0000
 6440,-0.00011422,-0.00012740,0.00009203,0.00022313,0.00046335,0.000201
 83,0.00034723,0.00004054,-0.00010254,-0.00011154,0.00012465,-0.0000857
 5,-0.00021673,0.00004389,0.00040314,0.00068957,-0.00023943,-0.00021887
 ,-0.00022949,0.00222236,0.00141467,-0.00254113,0.00516172,-0.00424491,
 0.00412104,-0.00001235,0.00004326,0.00007255,-0.00002787,-0.00001349,-
 0.00000762,-0.05613194,0.02857066,-0.05406833,-0.00202957,-0.00292819,
 0.00523922,-0.01058310,0.00740028,0.00173335,0.00033578,0.00005904,-0.
 00085450,-0.00376442,-0.00294624,0.00512134,0.00005119,0.00001033,-0.0
 0002278,0.00001622,0.00001453,-0.00002398,0.00024305,0.00075356,-0.000
 58835,-0.00001866,-0.00002437,-0.00002598,-0.00000617,-0.00000414,-0.0
 0000778,0.00000099,0.00001011,-0.00002142,0.00000098,-0.00002818,-0.00
 000495,0.00000051,-0.00000158,-0.00000092,-0.00000242,0.00000153,0.000
 00374,-0.00000174,0.00000760,0.00000281,0.06237888,-0.02842911,0.04571
 770,0.00055374,-0.00172945,-0.00057750,0.00022587,-0.00006275,-0.00004
 501,-0.00019417,0.00005012,0.00001772,0.00042573,-0.00007256,-0.000426
 57,0.00015057,-0.00003575,0.00001687,0.00005414,-0.00007466,-0.0001017
 9,-0.00001127,0.00007616,0.00017911,-0.00010804,0.00000455,-0.00004427
 ,-0.00080823,0.00241036,0.00339459,0.00270826,0.02402626,0.00597437,-0
 .00000931,0.00003758,0.00006088,-0.00003919,-0.00001107,-0.00004714,-0
 .00340992,0.00291399,-0.00301335,-0.05526320,0.01172049,-0.00180628,-0
 .00120499,-0.00012319,-0.00010575,0.00560720,-0.02348326,-0.00633955,-
 0.00245244,-0.00144490,-0.00440446,0.00001622,-0.00000327,-0.00001070,
 0.00000796,0.00000048,0.00000547,0.00002817,0.00002855,-0.00004962,-0.
 00003634,0.00001516,-0.00002808,0.00000870,-0.00000159,-0.00000111,-0.
 00000576,0.00000062,-0.00001382,-0.00000814,-0.00001177,-0.00000934,0.
 00000846,-0.00000154,-0.00000299,-0.00000167,0.00000081,0.00001447,0.0
 0000057,0.00000878,0.00000988,0.00007008,0.00134465,0.00017983,0.05344
 292,-0.00167649,0.00130167,0.00058292,-0.00000990,0.00000583,0.0000075
 4,0.00000980,0.00000720,0.00000298,0.00005745,0.00018596,-0.00000587,-
 0.00002988,-0.00001147,0.00001880,-0.00000410,-0.00001892,0.00003256,0
 .00003841,-0.00000383,-0.00006371,-0.00002273,0.00005593,-0.00002987,-
 0.00098514,-0.00181949,-0.00097219,-0.00003319,-0.01222105,-0.00487899
 ,-0.00000032,-0.00000306,-0.00000467,0.00000108,0.00000031,-0.00000218
 ,0.00329534,0.00051213,-0.00057489,0.01297288,-0.32485703,-0.07683346,
 -0.00013652,0.00054926,0.00041865,0.00311298,-0.00658731,-0.00203211,-
 0.00127688,0.00129250,-0.00255824,-0.00000290,-0.00000250,0.00000241,0
 .00000114,-0.00000658,0.00000308,-0.00000704,-0.00002375,0.00003214,0.
 00000792,0.00001356,0.00000882,0.00000043,-0.00000006,0.00000091,0.000
 00007,0.00000023,0.00000101,0.00000195,0.00000229,0.00000010,0.0000005
 2,-0.00000020,0.00000004,-0.00000140,0.,-0.00000006,0.00000053,0.00000
 005,0.00000019,-0.00011769,-0.00055369,-0.00027189,-0.01449376,0.34242
 382,-0.00066916,-0.00054908,-0.00059634,0.00019438,-0.00005417,-0.0000
 4990,-0.00017294,0.00002618,0.00001935,0.00055696,-0.00007632,0.000121
 85,0.00015177,-0.00000605,-0.00002356,0.00007415,0.00000219,-0.0000655
 6,-0.00000619,0.00015712,0.00019929,-0.00001395,-0.00015478,-0.0000711
 6,0.00073354,0.00064052,-0.00316097,0.00124812,0.00530248,0.00631325,-
 0.00000734,0.00002329,0.00006493,-0.00002812,-0.00001424,-0.00003238,-
 0.00313562,-0.00051503,0.00487743,-0.00288177,-0.07800610,-0.06202857,
 -0.00005589,0.00044562,-0.00085177,0.00129576,-0.01211795,0.00157218,-
 0.00428822,-0.00206699,0.00497420,0.00002118,-0.00001262,-0.00000961,0
 .00001874,0.00000103,-0.00000142,-0.00001417,-0.00001781,-0.00003161,-
 0.00003479,0.00000374,-0.00000236,0.00000616,-0.00000133,-0.00000216,-
 0.00000484,0.00000465,-0.00001711,-0.00000796,-0.00000849,-0.00000762,
 0.00000634,-0.00000259,-0.00000193,0.00000112,0.00000326,0.00000822,-0
 .00000036,0.00000926,0.00000917,-0.00017434,0.00032456,0.00022889,0.00
 508591,0.08570753,0.05269769,-0.00040314,-0.00040405,-0.00053042,-0.00
 007513,0.00002998,0.00002832,0.00005030,-0.00002042,-0.00002658,-0.000
 16140,0.00003572,-0.00006907,-0.00005663,0.00002233,-0.00000131,-0.000
 04177,0.00002187,0.00003160,0.00001907,-0.00003452,-0.00009670,0.00001
 890,0.00003298,0.00005086,0.00104111,-0.00068916,0.00019674,-0.0028464
 1,-0.00168644,-0.00410559,-0.00000057,-0.00002635,-0.00003123,0.000004
 64,0.00000041,0.00000784,0.00498921,-0.02473405,-0.00537985,-0.0012788
 9,0.00006056,-0.00008729,-0.05515779,0.01285666,-0.00421358,-0.0030348
 2,0.00294320,-0.00332142,0.00348219,0.02578240,0.00611310,-0.00001947,
 -0.00000969,0.00001522,-0.00000809,-0.00000086,0.00000269,0.00003549,-
 0.00003524,0.00000287,0.00001952,-0.00000710,0.00000650,-0.00000047,0.
 00000130,0.00000220,0.00000104,0.00000005,0.00000682,0.00000279,0.0000
 1097,0.00000432,-0.00000237,-0.00000035,0.00000044,-0.00000024,-0.0000
 0125,-0.00000317,0.00000021,-0.00000012,-0.00000197,0.00028392,0.00020
 551,0.00184022,-0.00005134,-0.00012602,0.00033170,0.05295051,-0.000361
 50,-0.00039207,-0.00037760,-0.00019080,0.00005626,0.00004603,0.0001613
 6,-0.00003937,-0.00004339,-0.00024699,-0.00001358,-0.00003032,-0.00010
 228,0.00001122,-0.00003471,-0.00008577,0.00003849,0.00006630,0.0000129
 3,-0.00006652,-0.00011649,0.00006704,0.00006106,0.00007654,0.00115845,
 -0.00000776,0.00032550,-0.00227783,0.00111394,-0.00217060,0.00000631,-
 0.00003869,-0.00006422,0.00002588,0.00000901,0.00003648,0.00310165,-0.
 00915616,-0.00178283,0.00006241,0.00068735,0.00043146,0.01305696,-0.32
 953410,-0.06501424,0.00338643,0.00057759,-0.00018147,-0.00247462,-0.01
 095554,-0.00451265,-0.00002303,-0.00000136,0.00001586,-0.00001416,-0.0
 0000169,-0.00000066,0.00003340,-0.00004532,-0.00003041,0.00002432,-0.0
 0000916,0.00000832,-0.00000733,0.00000146,0.00000178,0.00000378,-0.000
 00184,0.00001452,0.00000791,0.00001353,0.00000743,-0.00000826,0.000001
 52,0.00000243,0.00000153,-0.00000202,-0.00000991,0.00000048,-0.0000058
 8,-0.00000795,-0.00060029,0.00048308,0.00088217,-0.00008457,-0.0001304
 6,0.00016412,-0.01440324,0.34749336,0.00000057,-0.00006940,-0.00037396
 ,-0.00008785,0.00001811,0.00000244,0.00007587,-0.00002127,-0.00000454,
 -0.00007856,0.00003402,-0.00004923,-0.00005821,0.00000277,-0.00002089,
 -0.00003698,0.00002426,0.00001895,0.00006747,0.00002415,-0.00000721,0.
 00002984,0.00001666,0.00001473,0.00048827,-0.00039371,0.00054989,-0.00
 441187,-0.00247069,0.00491264,0.00000353,-0.00000858,-0.00001080,0.000
 01826,0.00000642,0.00002572,0.00153645,-0.01253401,0.00118476,-0.00038
 797,0.00024352,-0.00107831,-0.00470410,-0.06486934,-0.05476521,-0.0031
 3309,-0.00030027,0.00585272,-0.00036906,0.00633188,0.00506400,0.000005
 47,0.00000389,0.00000266,-0.00000942,-0.00000692,-0.00000084,0.0000104
 2,0.00000625,0.00001363,0.00000731,-0.00001052,0.00000155,-0.00000457,
 -0.00000041,-0.00000010,0.00000216,0.00000389,0.00000235,0.00000285,0.
 00000024,0.00000586,-0.00000352,0.00000050,0.00000105,0.00000036,-0.00
 000060,-0.00000857,-0.00000001,-0.00000397,-0.00000475,0.00160951,0.00
 117080,-0.00325111,0.00033974,0.00023336,-0.00080156,0.00740001,0.0715
 0192,0.04580401,0.00009031,-0.00035430,-0.00023529,-0.00021382,0.00004
 912,0.00003919,0.00019420,-0.00003810,-0.00002473,-0.00029506,-0.00026
 904,-0.00016609,-0.00012641,0.00001224,-0.00004141,-0.00008440,0.00004
 498,0.00003213,0.00006668,-0.00005618,-0.00005698,-0.00000478,0.000043
 97,0.00011278,-0.00021660,0.00136657,0.00052725,-0.00133488,-0.0025483
 7,-0.00449509,0.00000873,-0.00002515,-0.00006255,0.00003555,0.00001601
 ,0.00004683,0.00013701,-0.00085697,0.00020050,-0.01506815,0.01468755,-
 0.00371666,0.00251123,0.00035425,-0.00176003,-0.25265290,0.12652691,-0
 .05261982,0.00258191,-0.00185938,-0.00094263,-0.00001215,0.00001180,0.
 00000732,-0.00002105,0.00000204,-0.00000359,0.00000119,-0.00001871,-0.
 00001562,0.00001791,-0.00000917,0.00000404,-0.00000957,0.00000134,0.00
 000041,0.00000627,-0.00000256,0.00001581,0.00000795,0.00000615,0.00000
 770,-0.00000930,0.00000260,0.00000355,0.00000253,-0.00000251,-0.000011
 61,-0.00000094,-0.00001096,-0.00001083,-0.00018506,-0.00000510,0.00035
 959,0.00025097,-0.00073767,0.00167711,-0.00001950,-0.00010966,-0.00007
 889,0.26434290,0.00019964,-0.00003618,0.00003496,0.00001404,-0.0000023
 0,0.00000075,-0.00001485,0.00000303,0.00001487,-0.00004892,-0.00014892
 ,-0.00003796,-0.00001567,0.00001926,0.00000043,0.00001201,0.00001517,-
 0.00002367,0.00000672,0.00001543,0.00000457,-0.00005499,-0.00001447,0.
 00002185,-0.00063228,0.00056660,0.00001699,-0.00210772,0.00015299,-0.0
 0301413,-0.00000126,-0.00000055,0.00000129,-0.00000525,-0.00000360,-0.
 00000528,-0.00086990,-0.00074581,-0.00034903,-0.01292555,0.01089776,-0
 .00333401,-0.00010056,-0.00466550,-0.00309150,0.12634037,-0.13529024,0
 .02494649,0.02603957,-0.01012654,0.00673934,-0.00000365,-0.00000215,0.
 00000126,-0.00000281,0.00000130,0.00000062,-0.00001936,-0.00002415,0.0
 0001031,-0.00000066,-0.00000387,0.00000153,0.00000165,0.,0.00000064,-0
 .00000069,-0.00000005,-0.00000039,-0.00000048,0.00000122,-0.00000031,0
 .00000126,-0.00000053,-0.00000065,-0.00000032,0.00000005,0.00000113,-0
 .00000085,0.00000151,0.00000096,-0.00003771,-0.00000593,0.00027625,0.0
 0013389,0.00029178,0.00131324,0.00120180,-0.00063906,0.00031201,-0.136
 25829,0.13898251,-0.00005844,-0.00023759,-0.00024508,-0.00005925,0.000
 01665,0.00000449,0.00005023,-0.00003073,-0.00002760,-0.00026703,-0.000
 08237,-0.00015020,-0.00000127,-0.00000546,0.00000126,-0.00005364,0.000
 00724,0.00001043,-0.00000742,-0.00002144,-0.00010738,-0.00000497,0.000
 00966,0.00005973,-0.00020785,0.00065387,0.00042241,-0.00439418,-0.0027
 1075,0.00479765,0.00000170,-0.00000808,-0.00000934,0.00001342,0.000007
 55,0.00001837,0.00021363,-0.00050657,-0.00096356,-0.01073733,0.0077557
 1,0.00182018,-0.00186781,-0.00304199,0.00560340,-0.05263809,0.02471925
 ,-0.05248935,0.00645696,-0.00424707,0.00512460,-0.00000218,-0.00000043
 ,0.00000375,-0.00001005,0.00000892,-0.00000415,0.00004025,0.00002541,-
 0.00000044,0.00000752,-0.00000847,-0.00000037,-0.00000329,0.00000029,-
 0.00000034,0.00000137,0.00000139,0.00000237,0.00000208,0.00000127,0.00
 000265,-0.00000287,0.00000070,0.00000138,0.00000067,-0.00000053,-0.000
 00504,0.00000080,-0.00000337,-0.00000316,0.00032595,0.00025172,-0.0008
 7822,0.00193172,0.00118324,-0.00321123,0.00029671,-0.00025720,0.000191
 11,0.05958941,-0.02474492,0.04319872,-0.00000319,-0.00001544,-0.000082
 91,-0.00015377,0.00003823,0.00003115,0.00013645,-0.00003627,-0.0000561
 1,-0.00016598,-0.00002473,-0.00003544,-0.00003204,-0.00002176,-0.00003
 851,-0.00008526,0.00003314,0.00005398,0.00001124,-0.00008143,-0.000024
 48,0.00009643,0.00002464,0.00006575,0.00000612,-0.00001235,0.00044528,
 -0.00001008,0.00065038,0.00056473,0.00000659,-0.00002026,-0.00004761,0
 .00002474,0.00001227,0.00003404,-0.00206121,0.00408871,-0.00280582,0.0
 0235259,0.00128323,-0.00153646,-0.01435763,-0.01392563,-0.01096619,0.0
 0480121,0.00296385,0.00097431,-0.23152661,-0.09900034,-0.10281219,-0.0
 0000657,0.00000635,0.00000578,-0.00000825,-0.00000116,-0.00000208,0.00
 002053,0.00001550,-0.00004637,0.00000523,0.00000070,-0.00000222,-0.000
 00813,0.00000067,-0.00000008,0.00000454,-0.00000255,0.00001125,0.00000
 599,0.00000571,0.00000541,-0.00000749,0.00000199,0.00000261,0.00000196
 ,-0.00000185,-0.00000788,0.00000184,-0.00000736,-0.00000733,-0.0007823
 4,-0.00064605,-0.00045085,0.00004445,0.00016114,0.00009271,0.00025913,
 -0.00012051,0.00176603,-0.00000080,-0.00084916,0.00138326,0.24143032,-
 0.00017902,0.00017436,0.00000474,-0.00006805,0.00001721,0.00001510,0.0
 0006002,-0.00001754,-0.00001267,-0.00013407,-0.00000357,-0.00002448,-0
 .00004082,0.00000599,-0.00000665,-0.00002687,0.00001505,0.00002451,0.0
 0003440,-0.00002714,-0.00005426,0.00001156,0.00002629,0.00001990,0.000
 07826,-0.00015843,0.00015950,0.00088542,-0.00104276,0.00021191,0.00000
 383,-0.00000831,-0.00001990,0.00001177,0.00000515,0.00001359,0.0037550
 3,-0.00052336,-0.00041915,0.00150234,-0.00496704,-0.00253178,0.0138824
 9,0.01098566,0.00725657,-0.02479060,-0.00751513,-0.01291974,-0.0990143
 6,-0.11475433,-0.05907851,-0.00000410,0.00000397,0.00000231,-0.0000050
 3,-0.00000200,0.00000005,0.00001689,-0.00000400,0.00000966,0.00000916,
 -0.00000132,0.00000396,-0.00000276,0.00000058,0.00000026,0.00000160,-0
 .00000137,0.00000498,0.00000190,0.00000276,0.00000269,-0.00000256,0.00
 000104,0.00000109,0.00000037,-0.00000067,-0.00000351,0.00000029,-0.000
 00347,-0.00000323,0.00066123,0.00035609,0.00033694,-0.00113836,-0.0004
 0311,-0.00052522,-0.00102689,0.00049271,0.00075505,0.00003658,0.000761
 24,0.00126408,0.10548034,0.11658547,-0.00017193,-0.00018653,-0.0000890
 6,-0.00003782,0.00000627,-0.00000575,0.00004142,-0.00000039,0.00003306
 ,0.00008433,-0.00000701,0.00007930,-0.00004113,-0.00000625,-0.00002338
 ,0.00001943,0.00001456,-0.00002309,-0.00000014,0.00003346,0.00005810,-
 0.00002381,-0.00004990,0.00000528,0.00046248,0.00022507,-0.00088617,0.
 00042339,0.00061960,-0.00057976,0.00000133,-0.00000376,-0.00000439,0.0
 0000894,0.00000301,0.00001390,-0.00275152,-0.00042837,0.00604644,-0.00
 151094,-0.00281136,0.00576969,-0.00379303,-0.00385471,0.00172412,-0.00
 625045,-0.00190526,0.00128139,-0.10276583,-0.05891983,-0.09482324,0.00
 000199,-0.00000121,0.00000077,-0.00000172,0.00000388,-0.00000503,-0.00
 002544,-0.00000117,-0.00002342,0.00000328,-0.00000541,0.00000281,-0.00
 000390,-0.00000048,-0.00000082,0.00000202,0.00000198,0.00000046,0.0000
 0258,-0.00000154,0.00000073,-0.00000300,0.00000054,0.00000108,0.000001
 15,-0.00000022,-0.00000385,-0.00000153,-0.00000231,-0.00000252,-0.0001
 2136,-0.00018281,-0.00009724,-0.00018323,-0.00000818,-0.00011962,0.001
 53001,0.00105378,-0.00327100,0.00161820,0.00090233,-0.00316703,0.11348
 624,0.06551220,0.08810826\\-0.00000278,0.00000172,-0.00000030,-0.00000
 055,0.00000883,-0.00000114,0.00000196,-0.00001288,0.00000361,-0.000000
 90,0.00000565,-0.00000431,-0.00000040,-0.00000026,0.00000140,-0.000004
 14,0.00000062,0.00000112,0.00000262,-0.00000123,0.00000270,0.00000093,
 -0.00000252,0.00000102,0.00000350,-0.00000583,0.00000192,-0.00000450,0
 .00000004,-0.00000268,-0.00000108,0.00000228,0.00000355,-0.00000346,0.
 00000014,-0.00000203,-0.00000015,-0.00000245,-0.00000019,0.00000150,0.
 00000059,-0.00000133,-0.00000244,0.00000057,-0.00000160,0.00000158,0.0
 0000046,-0.00000071,0.00000281,-0.00000315,-0.00000066,0.00000022,0.00
 000249,-0.00000180,0.00000019,0.00000354,-0.00000031,-0.00000021,0.000
 00005,-0.00000088,-0.00000036,0.00000067,0.00000019,0.00000100,-0.0000
 0192,0.00000217,0.00000198,0.00000028,0.00000040,0.00000056,0.00000096
 ,0.00000084,0.00000024,-0.00000200,0.00000210,-0.00000228,0.00000196,0
 .00000241,0.00000256,0.00000082,0.00000035,0.00000199,0.00000208,-0.00
 000057,-0.00000101,-0.00000004,-0.00000118,0.00000093,-0.00000070,-0.0
 0000048,-0.00000021,-0.00000101,-0.00000228,-0.00000010,0.00000023,-0.
 00000135\\\@
 The archive entry for this job was punched.


 "PERFECTION IS NOT AN ACCIDENT"
         --  EAGLE ELECTRIC MANUFACTURING CO.,INC. NY
 Job cpu time:       0 days  7 hours  7 minutes 47.7 seconds.
 Elapsed time:       0 days  0 hours 16 minutes 40.8 seconds.
 File lengths (MBytes):  RWF=    626 Int=      0 D2E=      0 Chk=     22 Scr=      1
 Normal termination of Gaussian 16 at Tue Dec  5 11:19:31 2023.
