 Entering Gaussian System, Link 0=g16
 Input=/home/exlonk/in_progress/3713.inp
 Output=/home/exlonk/in_progress/3713.log
 Initial command:
 /opt/gaussian/g16-c01/g16/l1.exe "/lustre/tmp/slurm/2182968/Gau-88856.inp" -scrdir="/lustre/tmp/slurm/2182968/"
 Default CPUs for threads: 0-4,7-8,12-14,18-20,24-28,31-32,36-38,42-44
 Default is to use a total of  26 processors:
                               26 via shared-memory
                                1 via Linda
 Entering Link 1 = /opt/gaussian/g16-c01/g16/l1.exe PID=     88857.
  
 Copyright (c) 1988-2019, Gaussian, Inc.  All Rights Reserved.
  
 This is part of the Gaussian(R) 16 program.  It is based on
 the Gaussian(R) 09 system (copyright 2009, Gaussian, Inc.),
 the Gaussian(R) 03 system (copyright 2003, Gaussian, Inc.),
 the Gaussian(R) 98 system (copyright 1998, Gaussian, Inc.),
 the Gaussian(R) 94 system (copyright 1995, Gaussian, Inc.),
 the Gaussian 92(TM) system (copyright 1992, Gaussian, Inc.),
 the Gaussian 90(TM) system (copyright 1990, Gaussian, Inc.),
 the Gaussian 88(TM) system (copyright 1988, Gaussian, Inc.),
 the Gaussian 86(TM) system (copyright 1986, Carnegie Mellon
 University), and the Gaussian 82(TM) system (copyright 1983,
 Carnegie Mellon University). Gaussian is a federally registered
 trademark of Gaussian, Inc.
  
 This software contains proprietary and confidential information,
 including trade secrets, belonging to Gaussian, Inc.
  
 This software is provided under written license and may be
 used, copied, transmitted, or stored only in accord with that
 written license.
  
 The following legend is applicable only to US Government
 contracts under FAR:
  
                    RESTRICTED RIGHTS LEGEND
  
 Use, reproduction and disclosure by the US Government is
 subject to restrictions as set forth in subparagraphs (a)
 and (c) of the Commercial Computer Software - Restricted
 Rights clause in FAR 52.227-19.
  
 Gaussian, Inc.
 340 Quinnipiac St., Bldg. 40, Wallingford CT 06492
  
  
 ---------------------------------------------------------------
 Warning -- This program may not be used in any manner that
 competes with the business of Gaussian, Inc. or will provide
 assistance to any competitor of Gaussian, Inc.  The licensee
 of this program is prohibited from giving any competitor of
 Gaussian, Inc. access to this program.  By using this program,
 the user acknowledges that Gaussian, Inc. is engaged in the
 business of creating and licensing software in the field of
 computational chemistry and represents and warrants to the
 licensee that it is not a competitor of Gaussian, Inc. and that
 it will not use this program in any manner prohibited above.
 ---------------------------------------------------------------
  

 Cite this work as:
 Gaussian 16, Revision C.01,
 M. J. Frisch, G. W. Trucks, H. B. Schlegel, G. E. Scuseria, 
 M. A. Robb, J. R. Cheeseman, G. Scalmani, V. Barone, 
 G. A. Petersson, H. Nakatsuji, X. Li, M. Caricato, A. V. Marenich, 
 J. Bloino, B. G. Janesko, R. Gomperts, B. Mennucci, H. P. Hratchian, 
 J. V. Ortiz, A. F. Izmaylov, J. L. Sonnenberg, D. Williams-Young, 
 F. Ding, F. Lipparini, F. Egidi, J. Goings, B. Peng, A. Petrone, 
 T. Henderson, D. Ranasinghe, V. G. Zakrzewski, J. Gao, N. Rega, 
 G. Zheng, W. Liang, M. Hada, M. Ehara, K. Toyota, R. Fukuda, 
 J. Hasegawa, M. Ishida, T. Nakajima, Y. Honda, O. Kitao, H. Nakai, 
 T. Vreven, K. Throssell, J. A. Montgomery, Jr., J. E. Peralta, 
 F. Ogliaro, M. J. Bearpark, J. J. Heyd, E. N. Brothers, K. N. Kudin, 
 V. N. Staroverov, T. A. Keith, R. Kobayashi, J. Normand, 
 K. Raghavachari, A. P. Rendell, J. C. Burant, S. S. Iyengar, 
 J. Tomasi, M. Cossi, J. M. Millam, M. Klene, C. Adamo, R. Cammi, 
 J. W. Ochterski, R. L. Martin, K. Morokuma, O. Farkas, 
 J. B. Foresman, and D. J. Fox, Gaussian, Inc., Wallingford CT, 2019.
 
 ******************************************
 Gaussian 16:  EM64L-G16RevC.01  3-Jul-2019
                 5-Dec-2023 
 ******************************************
 %nproc=26
 Will use up to   26 processors via shared memory.
 %mem=16GB
 %chk=/home/exlonk/in_progress/3713.chk
 ------------------------------
 #p MN15/6-311++G(d,p) opt freq
 ------------------------------
 1/18=20,19=15,26=3,38=1/1,3;
 2/9=110,12=2,17=6,18=5,40=1/2;
 3/5=4,6=6,7=1111,11=2,25=1,30=1,71=1,74=-73/1,2,3;
 4//1;
 5/5=2,38=5/2;
 6/7=2,8=2,9=2,10=2,28=1/1;
 7//1,2,3,16;
 1/18=20,19=15,26=3/3(2);
 2/9=110/2;
 99//99;
 2/9=110/2;
 3/5=4,6=6,7=1111,11=2,25=1,30=1,71=1,74=-73/1,2,3;
 4/5=5,16=3,69=1/1;
 5/5=2,38=5/2;
 7//1,2,3,16;
 1/18=20,19=15,26=3/3(-5);
 2/9=110/2;
 6/7=2,8=2,9=2,10=2,19=2,28=1/1;
 99/9=1/99;
 Leave Link    1 at Tue Dec  5 14:48:04 2023, MaxMem=  2147483648 cpu:               7.0 elap:               0.3
 (Enter /opt/gaussian/g16-c01/g16/l101.exe)
 ---------------
 name file: 3713
 ---------------
 Symbolic Z-matrix:
 Charge =  0 Multiplicity = 1
 C                     2.0893   -2.02777   0.85569 
 C                     1.66692  -0.95658  -0.13215 
 C                     2.55606   0.111    -0.46162 
 C                     3.94788   0.23526   0.04369 
 N                     4.44365   1.47017   0.14624 
 C                     5.7096    1.55706   0.5541 
 C                     6.31747   2.90313   0.63729 
 C                     5.572     4.06759   0.36557 
 C                     6.15006   5.34031   0.42724 
 C                     7.49341   5.47855   0.76178 
 C                     8.25591   4.34883   1.03867 
 C                     7.67283   3.07944   0.97873 
 N                     6.47014   0.50899   0.86831 
 C                     5.89022  -0.68351   0.72839 
 C                     6.68878  -1.87599   1.08473 
 C                     7.93288  -1.75912   1.73584 
 C                     8.6865   -2.88507   2.08648 
 C                     8.21642  -4.15993   1.78802 
 C                     6.99582  -4.31097   1.13824 
 C                     6.2421   -3.18124   0.79383 
 N                     4.63921  -0.87266   0.30442 
 C                     2.07993   1.11     -1.33914 
 C                     0.79909   1.07068  -1.88256 
 C                    -0.05196   0.00429  -1.58625 
 N                    -1.35368   0.03738  -2.16769 
 C                    -1.60591   0.14538  -3.5343 
 C                    -0.73339   0.159    -4.64222 
 C                    -1.28019   0.25588  -5.92446 
 C                    -2.65517   0.32101  -6.10879 
 C                    -3.51662   0.2812   -5.01028 
 C                    -2.98947   0.18613  -3.70297 
 C                    -3.58988   0.11373  -2.40857 
 C                    -4.93958   0.11463  -1.9851 
 C                    -5.20276   0.04586  -0.62289 
 C                    -4.14275  -0.00223   0.32764 
 C                    -2.81045   0.01668  -0.07055 
 C                    -2.55769   0.03941  -1.46121 
 C                    -4.64731  -0.1023    1.78525 
 C                    -5.55264  -1.35285   1.82212 
 C                    -5.40307  -2.44961   2.65705 
 C                    -6.31523  -3.50104   2.53416 
 C                    -7.36008  -3.45186   1.59267 
 C                    -7.51877  -2.35048   0.74809 
 C                    -6.61648  -1.30347   0.86247 
 C                    -6.6033   -0.00999   0.02253 
 C                    -6.65082   1.15194   1.03531 
 C                    -7.59697   2.16518   1.08087 
 C                    -7.48274   3.13243   2.08319 
 C                    -6.43977   3.08297   3.02419 
 C                    -5.48558   2.06233   2.98774 
 C                    -5.58841   1.10012   1.99424 
 C                     0.3793   -1.04767  -0.74979 
 C                    -0.45954  -2.28942  -0.54849 
 H                     1.23267  -2.49789   1.34577 
 H                     2.66772  -2.80285   0.34765 
 H                     2.67209  -1.60243   1.67642 
 H                     4.51894   3.99137   0.10022 
 H                     5.5491    6.219     0.20849 
 H                     7.94677   6.46529   0.80687 
 H                     9.30581   4.45094   1.30128 
 H                     8.2997    2.2147    1.19487 
 H                     8.32698  -0.77454   1.98952 
 H                     9.63909  -2.76209   2.59553 
 H                     8.80363  -5.035     2.05984 
 H                     6.62779  -5.30599   0.89933 
 H                     5.29239  -3.32927   0.28224 
 H                     2.72199   1.94892  -1.61104 
 H                     0.47783   1.88899  -2.52577 
 H                     0.34271   0.08499  -4.51672 
 H                    -0.62071   0.27323  -6.78843 
 H                    -3.06619   0.39262  -7.112 
 H                    -4.591     0.32052  -5.16359 
 H                    -5.74528   0.16313  -2.7094 
 H                    -2.00359  -0.00113   0.65435 
 H                    -3.83376  -0.13931   2.51594 
 H                    -4.60017  -2.49988   3.38593 
 H                    -6.2226   -4.37343   3.17765 
 H                    -8.05564  -4.28545   1.51904 
 H                    -8.32594  -2.32001   0.02337 
 H                    -7.41352   0.02775  -0.71101 
 H                    -8.40701   2.21125   0.35966 
 H                    -8.21261   3.93776   2.13623 
 H                    -6.38164   3.85017   3.79396 
 H                    -4.68736   2.03506   3.7208 
 H                    -0.93515  -2.27664   0.4364 
 H                     0.1648   -3.18832  -0.63613 
 H                    -1.23308  -2.40428  -1.313 
 
 ITRead=  0  0  0  0  0  0  0  0  0  0  0  0  0  0  0  0  0  0  0  0
 ITRead=  0  0  0  0  0  0  0  0  0  0  0  0  0  0  0  0  0  0  0  0
 ITRead=  0  0  0  0  0  0  0  0  0  0  0  0  0  0  0  0  0  0  0  0
 ITRead=  0  0  0  0  0  0  0  0  0  0  0  0  0  0  0  0  0  0  0  0
 ITRead=  0  0  0  0  0  0  0
 MicOpt= -1 -1 -1 -1 -1 -1 -1 -1 -1 -1 -1 -1 -1 -1 -1 -1 -1 -1 -1 -1
 MicOpt= -1 -1 -1 -1 -1 -1 -1 -1 -1 -1 -1 -1 -1 -1 -1 -1 -1 -1 -1 -1
 MicOpt= -1 -1 -1 -1 -1 -1 -1 -1 -1 -1 -1 -1 -1 -1 -1 -1 -1 -1 -1 -1
 MicOpt= -1 -1 -1 -1 -1 -1 -1 -1 -1 -1 -1 -1 -1 -1 -1 -1 -1 -1 -1 -1
 MicOpt= -1 -1 -1 -1 -1 -1 -1
 NAtoms=     87 NQM=       87 NQMF=       0 NMMI=      0 NMMIF=      0
                NMic=       0 NMicF=      0.
                    Isotopes and Nuclear Properties:
 (Nuclear quadrupole moments (NQMom) in fm**2, nuclear magnetic moments (NMagM)
  in nuclear magnetons)

  Atom         1           2           3           4           5           6           7           8           9          10
 IAtWgt=          12          12          12          12          14          12          12          12          12          12
 AtmWgt=  12.0000000  12.0000000  12.0000000  12.0000000  14.0030740  12.0000000  12.0000000  12.0000000  12.0000000  12.0000000
 NucSpn=           0           0           0           0           2           0           0           0           0           0
 AtZEff=  -0.0000000  -0.0000000  -0.0000000  -0.0000000  -0.0000000  -0.0000000  -0.0000000  -0.0000000  -0.0000000  -0.0000000
 NQMom=    0.0000000   0.0000000   0.0000000   0.0000000   2.0440000   0.0000000   0.0000000   0.0000000   0.0000000   0.0000000
 NMagM=    0.0000000   0.0000000   0.0000000   0.0000000   0.4037610   0.0000000   0.0000000   0.0000000   0.0000000   0.0000000
 AtZNuc=   6.0000000   6.0000000   6.0000000   6.0000000   7.0000000   6.0000000   6.0000000   6.0000000   6.0000000   6.0000000

  Atom        11          12          13          14          15          16          17          18          19          20
 IAtWgt=          12          12          14          12          12          12          12          12          12          12
 AtmWgt=  12.0000000  12.0000000  14.0030740  12.0000000  12.0000000  12.0000000  12.0000000  12.0000000  12.0000000  12.0000000
 NucSpn=           0           0           2           0           0           0           0           0           0           0
 AtZEff=  -0.0000000  -0.0000000  -0.0000000  -0.0000000  -0.0000000  -0.0000000  -0.0000000  -0.0000000  -0.0000000  -0.0000000
 NQMom=    0.0000000   0.0000000   2.0440000   0.0000000   0.0000000   0.0000000   0.0000000   0.0000000   0.0000000   0.0000000
 NMagM=    0.0000000   0.0000000   0.4037610   0.0000000   0.0000000   0.0000000   0.0000000   0.0000000   0.0000000   0.0000000
 AtZNuc=   6.0000000   6.0000000   7.0000000   6.0000000   6.0000000   6.0000000   6.0000000   6.0000000   6.0000000   6.0000000

  Atom        21          22          23          24          25          26          27          28          29          30
 IAtWgt=          14          12          12          12          14          12          12          12          12          12
 AtmWgt=  14.0030740  12.0000000  12.0000000  12.0000000  14.0030740  12.0000000  12.0000000  12.0000000  12.0000000  12.0000000
 NucSpn=           2           0           0           0           2           0           0           0           0           0
 AtZEff=  -0.0000000  -0.0000000  -0.0000000  -0.0000000  -0.0000000  -0.0000000  -0.0000000  -0.0000000  -0.0000000  -0.0000000
 NQMom=    2.0440000   0.0000000   0.0000000   0.0000000   2.0440000   0.0000000   0.0000000   0.0000000   0.0000000   0.0000000
 NMagM=    0.4037610   0.0000000   0.0000000   0.0000000   0.4037610   0.0000000   0.0000000   0.0000000   0.0000000   0.0000000
 AtZNuc=   7.0000000   6.0000000   6.0000000   6.0000000   7.0000000   6.0000000   6.0000000   6.0000000   6.0000000   6.0000000

  Atom        31          32          33          34          35          36          37          38          39          40
 IAtWgt=          12          12          12          12          12          12          12          12          12          12
 AtmWgt=  12.0000000  12.0000000  12.0000000  12.0000000  12.0000000  12.0000000  12.0000000  12.0000000  12.0000000  12.0000000
 NucSpn=           0           0           0           0           0           0           0           0           0           0
 AtZEff=  -0.0000000  -0.0000000  -0.0000000  -0.0000000  -0.0000000  -0.0000000  -0.0000000  -0.0000000  -0.0000000  -0.0000000
 NQMom=    0.0000000   0.0000000   0.0000000   0.0000000   0.0000000   0.0000000   0.0000000   0.0000000   0.0000000   0.0000000
 NMagM=    0.0000000   0.0000000   0.0000000   0.0000000   0.0000000   0.0000000   0.0000000   0.0000000   0.0000000   0.0000000
 AtZNuc=   6.0000000   6.0000000   6.0000000   6.0000000   6.0000000   6.0000000   6.0000000   6.0000000   6.0000000   6.0000000

  Atom        41          42          43          44          45          46          47          48          49          50
 IAtWgt=          12          12          12          12          12          12          12          12          12          12
 AtmWgt=  12.0000000  12.0000000  12.0000000  12.0000000  12.0000000  12.0000000  12.0000000  12.0000000  12.0000000  12.0000000
 NucSpn=           0           0           0           0           0           0           0           0           0           0
 AtZEff=  -0.0000000  -0.0000000  -0.0000000  -0.0000000  -0.0000000  -0.0000000  -0.0000000  -0.0000000  -0.0000000  -0.0000000
 NQMom=    0.0000000   0.0000000   0.0000000   0.0000000   0.0000000   0.0000000   0.0000000   0.0000000   0.0000000   0.0000000
 NMagM=    0.0000000   0.0000000   0.0000000   0.0000000   0.0000000   0.0000000   0.0000000   0.0000000   0.0000000   0.0000000
 AtZNuc=   6.0000000   6.0000000   6.0000000   6.0000000   6.0000000   6.0000000   6.0000000   6.0000000   6.0000000   6.0000000

  Atom        51          52          53          54          55          56          57          58          59          60
 IAtWgt=          12          12          12           1           1           1           1           1           1           1
 AtmWgt=  12.0000000  12.0000000  12.0000000   1.0078250   1.0078250   1.0078250   1.0078250   1.0078250   1.0078250   1.0078250
 NucSpn=           0           0           0           1           1           1           1           1           1           1
 AtZEff=  -0.0000000  -0.0000000  -0.0000000  -0.0000000  -0.0000000  -0.0000000  -0.0000000  -0.0000000  -0.0000000  -0.0000000
 NQMom=    0.0000000   0.0000000   0.0000000   0.0000000   0.0000000   0.0000000   0.0000000   0.0000000   0.0000000   0.0000000
 NMagM=    0.0000000   0.0000000   0.0000000   2.7928460   2.7928460   2.7928460   2.7928460   2.7928460   2.7928460   2.7928460
 AtZNuc=   6.0000000   6.0000000   6.0000000   1.0000000   1.0000000   1.0000000   1.0000000   1.0000000   1.0000000   1.0000000

  Atom        61          62          63          64          65          66          67          68          69          70
 IAtWgt=           1           1           1           1           1           1           1           1           1           1
 AtmWgt=   1.0078250   1.0078250   1.0078250   1.0078250   1.0078250   1.0078250   1.0078250   1.0078250   1.0078250   1.0078250
 NucSpn=           1           1           1           1           1           1           1           1           1           1
 AtZEff=  -0.0000000  -0.0000000  -0.0000000  -0.0000000  -0.0000000  -0.0000000  -0.0000000  -0.0000000  -0.0000000  -0.0000000
 NQMom=    0.0000000   0.0000000   0.0000000   0.0000000   0.0000000   0.0000000   0.0000000   0.0000000   0.0000000   0.0000000
 NMagM=    2.7928460   2.7928460   2.7928460   2.7928460   2.7928460   2.7928460   2.7928460   2.7928460   2.7928460   2.7928460
 AtZNuc=   1.0000000   1.0000000   1.0000000   1.0000000   1.0000000   1.0000000   1.0000000   1.0000000   1.0000000   1.0000000

  Atom        71          72          73          74          75          76          77          78          79          80
 IAtWgt=           1           1           1           1           1           1           1           1           1           1
 AtmWgt=   1.0078250   1.0078250   1.0078250   1.0078250   1.0078250   1.0078250   1.0078250   1.0078250   1.0078250   1.0078250
 NucSpn=           1           1           1           1           1           1           1           1           1           1
 AtZEff=  -0.0000000  -0.0000000  -0.0000000  -0.0000000  -0.0000000  -0.0000000  -0.0000000  -0.0000000  -0.0000000  -0.0000000
 NQMom=    0.0000000   0.0000000   0.0000000   0.0000000   0.0000000   0.0000000   0.0000000   0.0000000   0.0000000   0.0000000
 NMagM=    2.7928460   2.7928460   2.7928460   2.7928460   2.7928460   2.7928460   2.7928460   2.7928460   2.7928460   2.7928460
 AtZNuc=   1.0000000   1.0000000   1.0000000   1.0000000   1.0000000   1.0000000   1.0000000   1.0000000   1.0000000   1.0000000

  Atom        81          82          83          84          85          86          87
 IAtWgt=           1           1           1           1           1           1           1
 AtmWgt=   1.0078250   1.0078250   1.0078250   1.0078250   1.0078250   1.0078250   1.0078250
 NucSpn=           1           1           1           1           1           1           1
 AtZEff=  -0.0000000  -0.0000000  -0.0000000  -0.0000000  -0.0000000  -0.0000000  -0.0000000
 NQMom=    0.0000000   0.0000000   0.0000000   0.0000000   0.0000000   0.0000000   0.0000000
 NMagM=    2.7928460   2.7928460   2.7928460   2.7928460   2.7928460   2.7928460   2.7928460
 AtZNuc=   1.0000000   1.0000000   1.0000000   1.0000000   1.0000000   1.0000000   1.0000000
 Leave Link  101 at Tue Dec  5 14:48:05 2023, MaxMem=  2147483648 cpu:              10.6 elap:               0.5
 (Enter /opt/gaussian/g16-c01/g16/l103.exe)

 GradGradGradGradGradGradGradGradGradGradGradGradGradGradGradGradGradGrad
 Berny optimization.
 Initialization pass.
                           ----------------------------
                           !    Initial Parameters    !
                           ! (Angstroms and Degrees)  !
 --------------------------                            --------------------------
 ! Name  Definition              Value          Derivative Info.                !
 --------------------------------------------------------------------------------
 ! R1    R(1,2)                  1.5171         estimate D2E/DX2                !
 ! R2    R(1,54)                 1.0932         estimate D2E/DX2                !
 ! R3    R(1,55)                 1.0924         estimate D2E/DX2                !
 ! R4    R(1,56)                 1.0928         estimate D2E/DX2                !
 ! R5    R(2,3)                  1.4279         estimate D2E/DX2                !
 ! R6    R(2,52)                 1.431          estimate D2E/DX2                !
 ! R7    R(3,4)                  1.4859         estimate D2E/DX2                !
 ! R8    R(3,22)                 1.4124         estimate D2E/DX2                !
 ! R9    R(4,5)                  1.3347         estimate D2E/DX2                !
 ! R10   R(4,21)                 1.3317         estimate D2E/DX2                !
 ! R11   R(5,6)                  1.3329         estimate D2E/DX2                !
 ! R12   R(6,7)                  1.4793         estimate D2E/DX2                !
 ! R13   R(6,13)                 1.3325         estimate D2E/DX2                !
 ! R14   R(7,8)                  1.4091         estimate D2E/DX2                !
 ! R15   R(7,12)                 1.4088         estimate D2E/DX2                !
 ! R16   R(8,9)                  1.3992         estimate D2E/DX2                !
 ! R17   R(8,57)                 1.0886         estimate D2E/DX2                !
 ! R18   R(9,10)                 1.3913         estimate D2E/DX2                !
 ! R19   R(9,58)                 1.0868         estimate D2E/DX2                !
 ! R20   R(10,11)                1.3908         estimate D2E/DX2                !
 ! R21   R(10,59)                1.0868         estimate D2E/DX2                !
 ! R22   R(11,12)                1.3982         estimate D2E/DX2                !
 ! R23   R(11,60)                1.0871         estimate D2E/DX2                !
 ! R24   R(12,61)                1.0897         estimate D2E/DX2                !
 ! R25   R(13,14)                1.3334         estimate D2E/DX2                !
 ! R26   R(14,15)                1.4787         estimate D2E/DX2                !
 ! R27   R(14,21)                1.3344         estimate D2E/DX2                !
 ! R28   R(15,16)                1.409          estimate D2E/DX2                !
 ! R29   R(15,20)                1.4099         estimate D2E/DX2                !
 ! R30   R(16,17)                1.3995         estimate D2E/DX2                !
 ! R31   R(16,62)                1.0904         estimate D2E/DX2                !
 ! R32   R(17,18)                1.3912         estimate D2E/DX2                !
 ! R33   R(17,63)                1.0871         estimate D2E/DX2                !
 ! R34   R(18,19)                1.391          estimate D2E/DX2                !
 ! R35   R(18,64)                1.0883         estimate D2E/DX2                !
 ! R36   R(19,20)                1.4011         estimate D2E/DX2                !
 ! R37   R(19,65)                1.0875         estimate D2E/DX2                !
 ! R38   R(20,66)                1.0888         estimate D2E/DX2                !
 ! R39   R(22,23)                1.3919         estimate D2E/DX2                !
 ! R40   R(22,67)                1.0908         estimate D2E/DX2                !
 ! R41   R(23,24)                1.3962         estimate D2E/DX2                !
 ! R42   R(23,68)                1.0893         estimate D2E/DX2                !
 ! R43   R(24,25)                1.4261         estimate D2E/DX2                !
 ! R44   R(24,52)                1.4115         estimate D2E/DX2                !
 ! R45   R(25,26)                1.3939         estimate D2E/DX2                !
 ! R46   R(25,37)                1.396          estimate D2E/DX2                !
 ! R47   R(26,27)                1.4103         estimate D2E/DX2                !
 ! R48   R(26,31)                1.3944         estimate D2E/DX2                !
 ! R49   R(27,28)                1.3973         estimate D2E/DX2                !
 ! R50   R(27,69)                1.0859         estimate D2E/DX2                !
 ! R51   R(28,29)                1.3888         estimate D2E/DX2                !
 ! R52   R(28,70)                1.087          estimate D2E/DX2                !
 ! R53   R(29,30)                1.3966         estimate D2E/DX2                !
 ! R54   R(29,71)                1.0865         estimate D2E/DX2                !
 ! R55   R(30,31)                1.4128         estimate D2E/DX2                !
 ! R56   R(30,72)                1.086          estimate D2E/DX2                !
 ! R57   R(31,32)                1.4287         estimate D2E/DX2                !
 ! R58   R(32,33)                1.4146         estimate D2E/DX2                !
 ! R59   R(32,37)                1.403          estimate D2E/DX2                !
 ! R60   R(33,34)                1.3891         estimate D2E/DX2                !
 ! R61   R(33,73)                1.0845         estimate D2E/DX2                !
 ! R62   R(34,35)                1.4246         estimate D2E/DX2                !
 ! R63   R(34,45)                1.5431         estimate D2E/DX2                !
 ! R64   R(35,36)                1.3907         estimate D2E/DX2                !
 ! R65   R(35,38)                1.5457         estimate D2E/DX2                !
 ! R66   R(36,37)                1.4136         estimate D2E/DX2                !
 ! R67   R(36,74)                1.0848         estimate D2E/DX2                !
 ! R68   R(38,39)                1.5443         estimate D2E/DX2                !
 ! R69   R(38,51)                1.5411         estimate D2E/DX2                !
 ! R70   R(38,75)                1.0941         estimate D2E/DX2                !
 ! R71   R(39,40)                1.3865         estimate D2E/DX2                !
 ! R72   R(39,44)                1.4336         estimate D2E/DX2                !
 ! R73   R(40,41)                1.3974         estimate D2E/DX2                !
 ! R74   R(40,76)                1.0856         estimate D2E/DX2                !
 ! R75   R(41,42)                1.4073         estimate D2E/DX2                !
 ! R76   R(41,77)                1.088          estimate D2E/DX2                !
 ! R77   R(42,43)                1.397          estimate D2E/DX2                !
 ! R78   R(42,78)                1.0882         estimate D2E/DX2                !
 ! R79   R(43,44)                1.3869         estimate D2E/DX2                !
 ! R80   R(43,79)                1.0852         estimate D2E/DX2                !
 ! R81   R(44,45)                1.5423         estimate D2E/DX2                !
 ! R82   R(45,46)                1.5421         estimate D2E/DX2                !
 ! R83   R(45,80)                1.0936         estimate D2E/DX2                !
 ! R84   R(46,47)                1.3871         estimate D2E/DX2                !
 ! R85   R(46,51)                1.4321         estimate D2E/DX2                !
 ! R86   R(47,48)                1.3976         estimate D2E/DX2                !
 ! R87   R(47,81)                1.0856         estimate D2E/DX2                !
 ! R88   R(48,49)                1.4056         estimate D2E/DX2                !
 ! R89   R(48,82)                1.0882         estimate D2E/DX2                !
 ! R90   R(49,50)                1.3977         estimate D2E/DX2                !
 ! R91   R(49,83)                1.0884         estimate D2E/DX2                !
 ! R92   R(50,51)                1.3869         estimate D2E/DX2                !
 ! R93   R(50,84)                1.0841         estimate D2E/DX2                !
 ! R94   R(52,53)                1.512          estimate D2E/DX2                !
 ! R95   R(53,85)                1.0938         estimate D2E/DX2                !
 ! R96   R(53,86)                1.098          estimate D2E/DX2                !
 ! R97   R(53,87)                1.0936         estimate D2E/DX2                !
 ! A1    A(2,1,54)             112.1717         estimate D2E/DX2                !
 ! A2    A(2,1,55)             110.2158         estimate D2E/DX2                !
 ! A3    A(2,1,56)             111.2654         estimate D2E/DX2                !
 ! A4    A(54,1,55)            108.5585         estimate D2E/DX2                !
 ! A5    A(54,1,56)            104.3947         estimate D2E/DX2                !
 ! A6    A(55,1,56)            110.0632         estimate D2E/DX2                !
 ! A7    A(1,2,3)              120.3163         estimate D2E/DX2                !
 ! A8    A(1,2,52)             119.1176         estimate D2E/DX2                !
 ! A9    A(3,2,52)             120.5517         estimate D2E/DX2                !
 ! A10   A(2,3,4)              124.5638         estimate D2E/DX2                !
 ! A11   A(2,3,22)             117.5346         estimate D2E/DX2                !
 ! A12   A(4,3,22)             117.8988         estimate D2E/DX2                !
 ! A13   A(3,4,5)              116.8362         estimate D2E/DX2                !
 ! A14   A(3,4,21)             118.8992         estimate D2E/DX2                !
 ! A15   A(5,4,21)             124.1877         estimate D2E/DX2                !
 ! A16   A(4,5,6)              115.8899         estimate D2E/DX2                !
 ! A17   A(5,6,7)              117.828          estimate D2E/DX2                !
 ! A18   A(5,6,13)             124.262          estimate D2E/DX2                !
 ! A19   A(7,6,13)             117.8983         estimate D2E/DX2                !
 ! A20   A(6,7,8)              121.5824         estimate D2E/DX2                !
 ! A21   A(6,7,12)             121.523          estimate D2E/DX2                !
 ! A22   A(8,7,12)             116.8915         estimate D2E/DX2                !
 ! A23   A(7,8,9)              121.6428         estimate D2E/DX2                !
 ! A24   A(7,8,57)             120.0594         estimate D2E/DX2                !
 ! A25   A(9,8,57)             118.2978         estimate D2E/DX2                !
 ! A26   A(8,9,10)             119.9922         estimate D2E/DX2                !
 ! A27   A(8,9,58)             119.8753         estimate D2E/DX2                !
 ! A28   A(10,9,58)            120.1318         estimate D2E/DX2                !
 ! A29   A(9,10,11)            119.7704         estimate D2E/DX2                !
 ! A30   A(9,10,59)            120.1953         estimate D2E/DX2                !
 ! A31   A(11,10,59)           120.0344         estimate D2E/DX2                !
 ! A32   A(10,11,12)           120.0189         estimate D2E/DX2                !
 ! A33   A(10,11,60)           120.0859         estimate D2E/DX2                !
 ! A34   A(12,11,60)           119.8951         estimate D2E/DX2                !
 ! A35   A(7,12,11)            121.6832         estimate D2E/DX2                !
 ! A36   A(7,12,61)            120.1463         estimate D2E/DX2                !
 ! A37   A(11,12,61)           118.1676         estimate D2E/DX2                !
 ! A38   A(6,13,14)            115.4961         estimate D2E/DX2                !
 ! A39   A(13,14,15)           117.455          estimate D2E/DX2                !
 ! A40   A(13,14,21)           124.601          estimate D2E/DX2                !
 ! A41   A(15,14,21)           117.9398         estimate D2E/DX2                !
 ! A42   A(14,15,16)           121.4181         estimate D2E/DX2                !
 ! A43   A(14,15,20)           121.7185         estimate D2E/DX2                !
 ! A44   A(16,15,20)           116.8632         estimate D2E/DX2                !
 ! A45   A(15,16,17)           121.6347         estimate D2E/DX2                !
 ! A46   A(15,16,62)           120.099          estimate D2E/DX2                !
 ! A47   A(17,16,62)           118.2629         estimate D2E/DX2                !
 ! A48   A(16,17,18)           120.1029         estimate D2E/DX2                !
 ! A49   A(16,17,63)           119.8803         estimate D2E/DX2                !
 ! A50   A(18,17,63)           120.0165         estimate D2E/DX2                !
 ! A51   A(17,18,19)           119.7514         estimate D2E/DX2                !
 ! A52   A(17,18,64)           120.062          estimate D2E/DX2                !
 ! A53   A(19,18,64)           120.1864         estimate D2E/DX2                !
 ! A54   A(18,19,20)           119.9559         estimate D2E/DX2                !
 ! A55   A(18,19,65)           119.93           estimate D2E/DX2                !
 ! A56   A(20,19,65)           120.114          estimate D2E/DX2                !
 ! A57   A(15,20,19)           121.6901         estimate D2E/DX2                !
 ! A58   A(15,20,66)           119.9433         estimate D2E/DX2                !
 ! A59   A(19,20,66)           118.3651         estimate D2E/DX2                !
 ! A60   A(4,21,14)            115.53           estimate D2E/DX2                !
 ! A61   A(3,22,23)            122.1952         estimate D2E/DX2                !
 ! A62   A(3,22,67)            120.0275         estimate D2E/DX2                !
 ! A63   A(23,22,67)           117.7773         estimate D2E/DX2                !
 ! A64   A(22,23,24)           119.9765         estimate D2E/DX2                !
 ! A65   A(22,23,68)           118.7311         estimate D2E/DX2                !
 ! A66   A(24,23,68)           121.2877         estimate D2E/DX2                !
 ! A67   A(23,24,25)           116.8821         estimate D2E/DX2                !
 ! A68   A(23,24,52)           120.5825         estimate D2E/DX2                !
 ! A69   A(25,24,52)           122.5353         estimate D2E/DX2                !
 ! A70   A(24,25,26)           124.5221         estimate D2E/DX2                !
 ! A71   A(24,25,37)           125.5192         estimate D2E/DX2                !
 ! A72   A(26,25,37)           109.8766         estimate D2E/DX2                !
 ! A73   A(25,26,27)           131.2248         estimate D2E/DX2                !
 ! A74   A(25,26,31)           107.4822         estimate D2E/DX2                !
 ! A75   A(27,26,31)           121.2353         estimate D2E/DX2                !
 ! A76   A(26,27,28)           118.6502         estimate D2E/DX2                !
 ! A77   A(26,27,69)           121.4417         estimate D2E/DX2                !
 ! A78   A(28,27,69)           119.9044         estimate D2E/DX2                !
 ! A79   A(27,28,29)           120.8282         estimate D2E/DX2                !
 ! A80   A(27,28,70)           119.5402         estimate D2E/DX2                !
 ! A81   A(29,28,70)           119.6301         estimate D2E/DX2                !
 ! A82   A(28,29,30)           120.3287         estimate D2E/DX2                !
 ! A83   A(28,29,71)           120.0108         estimate D2E/DX2                !
 ! A84   A(30,29,71)           119.6573         estimate D2E/DX2                !
 ! A85   A(29,30,31)           119.9742         estimate D2E/DX2                !
 ! A86   A(29,30,72)           119.8792         estimate D2E/DX2                !
 ! A87   A(31,30,72)           120.1464         estimate D2E/DX2                !
 ! A88   A(26,31,30)           118.955          estimate D2E/DX2                !
 ! A89   A(26,31,32)           107.8127         estimate D2E/DX2                !
 ! A90   A(30,31,32)           133.2322         estimate D2E/DX2                !
 ! A91   A(31,32,33)           132.234          estimate D2E/DX2                !
 ! A92   A(31,32,37)           107.7745         estimate D2E/DX2                !
 ! A93   A(33,32,37)           119.9902         estimate D2E/DX2                !
 ! A94   A(32,33,34)           118.3142         estimate D2E/DX2                !
 ! A95   A(32,33,73)           120.5944         estimate D2E/DX2                !
 ! A96   A(34,33,73)           121.0907         estimate D2E/DX2                !
 ! A97   A(33,34,35)           120.998          estimate D2E/DX2                !
 ! A98   A(33,34,45)           125.7259         estimate D2E/DX2                !
 ! A99   A(35,34,45)           113.2686         estimate D2E/DX2                !
 ! A100  A(34,35,36)           121.4226         estimate D2E/DX2                !
 ! A101  A(34,35,38)           112.8608         estimate D2E/DX2                !
 ! A102  A(36,35,38)           125.706          estimate D2E/DX2                !
 ! A103  A(35,36,37)           116.9493         estimate D2E/DX2                !
 ! A104  A(35,36,74)           121.3999         estimate D2E/DX2                !
 ! A105  A(37,36,74)           121.6439         estimate D2E/DX2                !
 ! A106  A(25,37,32)           107.0303         estimate D2E/DX2                !
 ! A107  A(25,37,36)           130.6965         estimate D2E/DX2                !
 ! A108  A(32,37,36)           122.2472         estimate D2E/DX2                !
 ! A109  A(35,38,39)           105.4445         estimate D2E/DX2                !
 ! A110  A(35,38,51)           106.0637         estimate D2E/DX2                !
 ! A111  A(35,38,75)           112.9061         estimate D2E/DX2                !
 ! A112  A(39,38,51)           105.6988         estimate D2E/DX2                !
 ! A113  A(39,38,75)           113.1141         estimate D2E/DX2                !
 ! A114  A(51,38,75)           112.947          estimate D2E/DX2                !
 ! A115  A(38,39,40)           126.2779         estimate D2E/DX2                !
 ! A116  A(38,39,44)           113.0274         estimate D2E/DX2                !
 ! A117  A(40,39,44)           120.6912         estimate D2E/DX2                !
 ! A118  A(39,40,41)           118.1523         estimate D2E/DX2                !
 ! A119  A(39,40,76)           121.3823         estimate D2E/DX2                !
 ! A120  A(41,40,76)           120.465          estimate D2E/DX2                !
 ! A121  A(40,41,42)           121.1439         estimate D2E/DX2                !
 ! A122  A(40,41,77)           119.718          estimate D2E/DX2                !
 ! A123  A(42,41,77)           119.1377         estimate D2E/DX2                !
 ! A124  A(41,42,43)           121.0876         estimate D2E/DX2                !
 ! A125  A(41,42,78)           119.543          estimate D2E/DX2                !
 ! A126  A(43,42,78)           119.3693         estimate D2E/DX2                !
 ! A127  A(42,43,44)           118.1277         estimate D2E/DX2                !
 ! A128  A(42,43,79)           120.6888         estimate D2E/DX2                !
 ! A129  A(44,43,79)           121.1835         estimate D2E/DX2                !
 ! A130  A(39,44,43)           120.7972         estimate D2E/DX2                !
 ! A131  A(39,44,45)           112.7743         estimate D2E/DX2                !
 ! A132  A(43,44,45)           126.4258         estimate D2E/DX2                !
 ! A133  A(34,45,44)           105.4196         estimate D2E/DX2                !
 ! A134  A(34,45,46)           105.9851         estimate D2E/DX2                !
 ! A135  A(34,45,80)           112.9938         estimate D2E/DX2                !
 ! A136  A(44,45,46)           105.9009         estimate D2E/DX2                !
 ! A137  A(44,45,80)           112.8242         estimate D2E/DX2                !
 ! A138  A(46,45,80)           113.0595         estimate D2E/DX2                !
 ! A139  A(45,46,47)           126.3699         estimate D2E/DX2                !
 ! A140  A(45,46,51)           112.932          estimate D2E/DX2                !
 ! A141  A(47,46,51)           120.6955         estimate D2E/DX2                !
 ! A142  A(46,47,48)           118.253          estimate D2E/DX2                !
 ! A143  A(46,47,81)           121.2107         estimate D2E/DX2                !
 ! A144  A(48,47,81)           120.5363         estimate D2E/DX2                !
 ! A145  A(47,48,49)           121.0922         estimate D2E/DX2                !
 ! A146  A(47,48,82)           119.4942         estimate D2E/DX2                !
 ! A147  A(49,48,82)           119.4136         estimate D2E/DX2                !
 ! A148  A(48,49,50)           120.9845         estimate D2E/DX2                !
 ! A149  A(48,49,83)           119.2304         estimate D2E/DX2                !
 ! A150  A(50,49,83)           119.7843         estimate D2E/DX2                !
 ! A151  A(49,50,51)           118.3395         estimate D2E/DX2                !
 ! A152  A(49,50,84)           120.225          estimate D2E/DX2                !
 ! A153  A(51,50,84)           121.4353         estimate D2E/DX2                !
 ! A154  A(38,51,46)           112.9814         estimate D2E/DX2                !
 ! A155  A(38,51,50)           126.3823         estimate D2E/DX2                !
 ! A156  A(46,51,50)           120.6346         estimate D2E/DX2                !
 ! A157  A(2,52,24)            118.8987         estimate D2E/DX2                !
 ! A158  A(2,52,53)            119.6057         estimate D2E/DX2                !
 ! A159  A(24,52,53)           121.4307         estimate D2E/DX2                !
 ! A160  A(52,53,85)           110.5806         estimate D2E/DX2                !
 ! A161  A(52,53,86)           110.2595         estimate D2E/DX2                !
 ! A162  A(52,53,87)           112.681          estimate D2E/DX2                !
 ! A163  A(85,53,86)           109.1895         estimate D2E/DX2                !
 ! A164  A(85,53,87)           108.8524         estimate D2E/DX2                !
 ! A165  A(86,53,87)           105.0947         estimate D2E/DX2                !
 ! D1    D(54,1,2,3)           154.6519         estimate D2E/DX2                !
 ! D2    D(54,1,2,52)          -26.7212         estimate D2E/DX2                !
 ! D3    D(55,1,2,3)           -84.2629         estimate D2E/DX2                !
 ! D4    D(55,1,2,52)           94.364          estimate D2E/DX2                !
 ! D5    D(56,1,2,3)            38.1219         estimate D2E/DX2                !
 ! D6    D(56,1,2,52)         -143.2512         estimate D2E/DX2                !
 ! D7    D(1,2,3,4)              3.5324         estimate D2E/DX2                !
 ! D8    D(1,2,3,22)          -177.0856         estimate D2E/DX2                !
 ! D9    D(52,2,3,4)          -175.0746         estimate D2E/DX2                !
 ! D10   D(52,2,3,22)            4.3074         estimate D2E/DX2                !
 ! D11   D(1,2,52,24)          175.0599         estimate D2E/DX2                !
 ! D12   D(1,2,52,53)           -7.8286         estimate D2E/DX2                !
 ! D13   D(3,2,52,24)           -6.3165         estimate D2E/DX2                !
 ! D14   D(3,2,52,53)          170.795          estimate D2E/DX2                !
 ! D15   D(2,3,4,5)           -152.0758         estimate D2E/DX2                !
 ! D16   D(2,3,4,21)            30.9792         estimate D2E/DX2                !
 ! D17   D(22,3,4,5)            28.5443         estimate D2E/DX2                !
 ! D18   D(22,3,4,21)         -148.4007         estimate D2E/DX2                !
 ! D19   D(2,3,22,23)           -0.4748         estimate D2E/DX2                !
 ! D20   D(2,3,22,67)          179.4476         estimate D2E/DX2                !
 ! D21   D(4,3,22,23)          178.9493         estimate D2E/DX2                !
 ! D22   D(4,3,22,67)           -1.1282         estimate D2E/DX2                !
 ! D23   D(3,4,5,6)           -177.6071         estimate D2E/DX2                !
 ! D24   D(21,4,5,6)            -0.8406         estimate D2E/DX2                !
 ! D25   D(3,4,21,14)          178.6773         estimate D2E/DX2                !
 ! D26   D(5,4,21,14)            1.973          estimate D2E/DX2                !
 ! D27   D(4,5,6,7)            177.8963         estimate D2E/DX2                !
 ! D28   D(4,5,6,13)            -0.8304         estimate D2E/DX2                !
 ! D29   D(5,6,7,8)              3.3216         estimate D2E/DX2                !
 ! D30   D(5,6,7,12)          -176.0194         estimate D2E/DX2                !
 ! D31   D(13,6,7,8)          -177.8692         estimate D2E/DX2                !
 ! D32   D(13,6,7,12)            2.7898         estimate D2E/DX2                !
 ! D33   D(5,6,13,14)            1.1552         estimate D2E/DX2                !
 ! D34   D(7,6,13,14)         -177.5706         estimate D2E/DX2                !
 ! D35   D(6,7,8,9)           -179.1714         estimate D2E/DX2                !
 ! D36   D(6,7,8,57)             0.8633         estimate D2E/DX2                !
 ! D37   D(12,7,8,9)             0.1988         estimate D2E/DX2                !
 ! D38   D(12,7,8,57)         -179.7665         estimate D2E/DX2                !
 ! D39   D(6,7,12,11)          179.0201         estimate D2E/DX2                !
 ! D40   D(6,7,12,61)           -0.3519         estimate D2E/DX2                !
 ! D41   D(8,7,12,11)           -0.3505         estimate D2E/DX2                !
 ! D42   D(8,7,12,61)         -179.7225         estimate D2E/DX2                !
 ! D43   D(7,8,9,10)             0.0876         estimate D2E/DX2                !
 ! D44   D(7,8,9,58)           179.7754         estimate D2E/DX2                !
 ! D45   D(57,8,9,10)         -179.9465         estimate D2E/DX2                !
 ! D46   D(57,8,9,58)           -0.2588         estimate D2E/DX2                !
 ! D47   D(8,9,10,11)           -0.2325         estimate D2E/DX2                !
 ! D48   D(8,9,10,59)          179.7611         estimate D2E/DX2                !
 ! D49   D(58,9,10,11)        -179.9194         estimate D2E/DX2                !
 ! D50   D(58,9,10,59)           0.0742         estimate D2E/DX2                !
 ! D51   D(9,10,11,12)           0.0839         estimate D2E/DX2                !
 ! D52   D(9,10,11,60)        -179.9571         estimate D2E/DX2                !
 ! D53   D(59,10,11,12)       -179.9098         estimate D2E/DX2                !
 ! D54   D(59,10,11,60)          0.0492         estimate D2E/DX2                !
 ! D55   D(10,11,12,7)           0.2164         estimate D2E/DX2                !
 ! D56   D(10,11,12,61)        179.6003         estimate D2E/DX2                !
 ! D57   D(60,11,12,7)        -179.7427         estimate D2E/DX2                !
 ! D58   D(60,11,12,61)         -0.3587         estimate D2E/DX2                !
 ! D59   D(6,13,14,15)        -179.0999         estimate D2E/DX2                !
 ! D60   D(6,13,14,21)           0.141          estimate D2E/DX2                !
 ! D61   D(13,14,15,16)          9.4416         estimate D2E/DX2                !
 ! D62   D(13,14,15,20)       -170.7381         estimate D2E/DX2                !
 ! D63   D(21,14,15,16)       -169.8511         estimate D2E/DX2                !
 ! D64   D(21,14,15,20)          9.9692         estimate D2E/DX2                !
 ! D65   D(13,14,21,4)          -1.6066         estimate D2E/DX2                !
 ! D66   D(15,14,21,4)         177.6309         estimate D2E/DX2                !
 ! D67   D(14,15,16,17)        179.3871         estimate D2E/DX2                !
 ! D68   D(14,15,16,62)          0.075          estimate D2E/DX2                !
 ! D69   D(20,15,16,17)         -0.4415         estimate D2E/DX2                !
 ! D70   D(20,15,16,62)       -179.7537         estimate D2E/DX2                !
 ! D71   D(14,15,20,19)       -179.6473         estimate D2E/DX2                !
 ! D72   D(14,15,20,66)          0.8126         estimate D2E/DX2                !
 ! D73   D(16,15,20,19)          0.1808         estimate D2E/DX2                !
 ! D74   D(16,15,20,66)       -179.3593         estimate D2E/DX2                !
 ! D75   D(15,16,17,18)          0.3134         estimate D2E/DX2                !
 ! D76   D(15,16,17,63)       -179.499          estimate D2E/DX2                !
 ! D77   D(62,16,17,18)        179.6377         estimate D2E/DX2                !
 ! D78   D(62,16,17,63)         -0.1747         estimate D2E/DX2                !
 ! D79   D(16,17,18,19)          0.0939         estimate D2E/DX2                !
 ! D80   D(16,17,18,64)        179.9199         estimate D2E/DX2                !
 ! D81   D(63,17,18,19)        179.906          estimate D2E/DX2                !
 ! D82   D(63,17,18,64)         -0.268          estimate D2E/DX2                !
 ! D83   D(17,18,19,20)         -0.3495         estimate D2E/DX2                !
 ! D84   D(17,18,19,65)        179.7115         estimate D2E/DX2                !
 ! D85   D(64,18,19,20)        179.8247         estimate D2E/DX2                !
 ! D86   D(64,18,19,65)         -0.1143         estimate D2E/DX2                !
 ! D87   D(18,19,20,15)          0.2099         estimate D2E/DX2                !
 ! D88   D(18,19,20,66)        179.7571         estimate D2E/DX2                !
 ! D89   D(65,19,20,15)       -179.8512         estimate D2E/DX2                !
 ! D90   D(65,19,20,66)         -0.3041         estimate D2E/DX2                !
 ! D91   D(3,22,23,24)          -1.3269         estimate D2E/DX2                !
 ! D92   D(3,22,23,68)         177.8926         estimate D2E/DX2                !
 ! D93   D(67,22,23,24)        178.749          estimate D2E/DX2                !
 ! D94   D(67,22,23,68)         -2.0316         estimate D2E/DX2                !
 ! D95   D(22,23,24,25)        179.3935         estimate D2E/DX2                !
 ! D96   D(22,23,24,52)         -0.733          estimate D2E/DX2                !
 ! D97   D(68,23,24,25)          0.1945         estimate D2E/DX2                !
 ! D98   D(68,23,24,52)       -179.932          estimate D2E/DX2                !
 ! D99   D(23,24,25,26)         55.7868         estimate D2E/DX2                !
 ! D100  D(23,24,25,37)       -120.5809         estimate D2E/DX2                !
 ! D101  D(52,24,25,26)       -124.084          estimate D2E/DX2                !
 ! D102  D(52,24,25,37)         59.5483         estimate D2E/DX2                !
 ! D103  D(23,24,52,2)           4.4874         estimate D2E/DX2                !
 ! D104  D(23,24,52,53)       -172.5693         estimate D2E/DX2                !
 ! D105  D(25,24,52,2)        -175.6464         estimate D2E/DX2                !
 ! D106  D(25,24,52,53)          7.2969         estimate D2E/DX2                !
 ! D107  D(24,25,26,27)          4.6095         estimate D2E/DX2                !
 ! D108  D(24,25,26,31)       -178.1975         estimate D2E/DX2                !
 ! D109  D(37,25,26,27)       -178.5337         estimate D2E/DX2                !
 ! D110  D(37,25,26,31)         -1.3407         estimate D2E/DX2                !
 ! D111  D(24,25,37,32)        178.4243         estimate D2E/DX2                !
 ! D112  D(24,25,37,36)          0.2875         estimate D2E/DX2                !
 ! D113  D(26,25,37,32)          1.6061         estimate D2E/DX2                !
 ! D114  D(26,25,37,36)       -176.5307         estimate D2E/DX2                !
 ! D115  D(25,26,27,28)        178.8022         estimate D2E/DX2                !
 ! D116  D(25,26,27,69)         -0.5041         estimate D2E/DX2                !
 ! D117  D(31,26,27,28)          1.9338         estimate D2E/DX2                !
 ! D118  D(31,26,27,69)       -177.3726         estimate D2E/DX2                !
 ! D119  D(25,26,31,30)       -179.3509         estimate D2E/DX2                !
 ! D120  D(25,26,31,32)          0.5407         estimate D2E/DX2                !
 ! D121  D(27,26,31,30)         -1.8198         estimate D2E/DX2                !
 ! D122  D(27,26,31,32)        178.0718         estimate D2E/DX2                !
 ! D123  D(26,27,28,29)         -0.7834         estimate D2E/DX2                !
 ! D124  D(26,27,28,70)        179.6594         estimate D2E/DX2                !
 ! D125  D(69,27,28,29)        178.5339         estimate D2E/DX2                !
 ! D126  D(69,27,28,70)         -1.0232         estimate D2E/DX2                !
 ! D127  D(27,28,29,30)         -0.4431         estimate D2E/DX2                !
 ! D128  D(27,28,29,71)       -179.786          estimate D2E/DX2                !
 ! D129  D(70,28,29,30)        179.1137         estimate D2E/DX2                !
 ! D130  D(70,28,29,71)         -0.2292         estimate D2E/DX2                !
 ! D131  D(28,29,30,31)          0.5615         estimate D2E/DX2                !
 ! D132  D(28,29,30,72)       -179.2604         estimate D2E/DX2                !
 ! D133  D(71,29,30,31)        179.9067         estimate D2E/DX2                !
 ! D134  D(71,29,30,72)          0.0849         estimate D2E/DX2                !
 ! D135  D(29,30,31,26)          0.5588         estimate D2E/DX2                !
 ! D136  D(29,30,31,32)       -179.2996         estimate D2E/DX2                !
 ! D137  D(72,30,31,26)       -179.6199         estimate D2E/DX2                !
 ! D138  D(72,30,31,32)          0.5218         estimate D2E/DX2                !
 ! D139  D(26,31,32,33)       -179.9938         estimate D2E/DX2                !
 ! D140  D(26,31,32,37)          0.4364         estimate D2E/DX2                !
 ! D141  D(30,31,32,33)         -0.124          estimate D2E/DX2                !
 ! D142  D(30,31,32,37)       -179.6938         estimate D2E/DX2                !
 ! D143  D(31,32,33,34)       -179.2858         estimate D2E/DX2                !
 ! D144  D(31,32,33,73)          1.0017         estimate D2E/DX2                !
 ! D145  D(37,32,33,34)          0.2412         estimate D2E/DX2                !
 ! D146  D(37,32,33,73)       -179.4713         estimate D2E/DX2                !
 ! D147  D(31,32,37,25)         -1.2359         estimate D2E/DX2                !
 ! D148  D(31,32,37,36)        177.0939         estimate D2E/DX2                !
 ! D149  D(33,32,37,25)        179.1318         estimate D2E/DX2                !
 ! D150  D(33,32,37,36)         -2.5384         estimate D2E/DX2                !
 ! D151  D(32,33,34,35)          1.0198         estimate D2E/DX2                !
 ! D152  D(32,33,34,45)       -177.9134         estimate D2E/DX2                !
 ! D153  D(73,33,34,35)       -179.2692         estimate D2E/DX2                !
 ! D154  D(73,33,34,45)          1.7976         estimate D2E/DX2                !
 ! D155  D(33,34,35,36)         -0.0532         estimate D2E/DX2                !
 ! D156  D(33,34,35,38)       -178.9358         estimate D2E/DX2                !
 ! D157  D(45,34,35,36)        179.004          estimate D2E/DX2                !
 ! D158  D(45,34,35,38)          0.1215         estimate D2E/DX2                !
 ! D159  D(33,34,45,44)        122.626          estimate D2E/DX2                !
 ! D160  D(33,34,45,46)       -125.3715         estimate D2E/DX2                !
 ! D161  D(33,34,45,80)         -1.0269         estimate D2E/DX2                !
 ! D162  D(35,34,45,44)        -56.3786         estimate D2E/DX2                !
 ! D163  D(35,34,45,46)         55.6239         estimate D2E/DX2                !
 ! D164  D(35,34,45,80)        179.9685         estimate D2E/DX2                !
 ! D165  D(34,35,36,37)         -2.1059         estimate D2E/DX2                !
 ! D166  D(34,35,36,74)        178.8345         estimate D2E/DX2                !
 ! D167  D(38,35,36,37)        176.626          estimate D2E/DX2                !
 ! D168  D(38,35,36,74)         -2.4335         estimate D2E/DX2                !
 ! D169  D(34,35,38,39)         56.02           estimate D2E/DX2                !
 ! D170  D(34,35,38,51)        -55.7992         estimate D2E/DX2                !
 ! D171  D(34,35,38,75)        179.9981         estimate D2E/DX2                !
 ! D172  D(36,35,38,39)       -122.8057         estimate D2E/DX2                !
 ! D173  D(36,35,38,51)        125.3751         estimate D2E/DX2                !
 ! D174  D(36,35,38,75)          1.1724         estimate D2E/DX2                !
 ! D175  D(35,36,37,25)       -178.692          estimate D2E/DX2                !
 ! D176  D(35,36,37,32)          3.4146         estimate D2E/DX2                !
 ! D177  D(74,36,37,25)          0.3651         estimate D2E/DX2                !
 ! D178  D(74,36,37,32)       -177.5284         estimate D2E/DX2                !
 ! D179  D(35,38,39,40)        123.271          estimate D2E/DX2                !
 ! D180  D(35,38,39,44)        -56.0495         estimate D2E/DX2                !
 ! D181  D(51,38,39,40)       -124.6522         estimate D2E/DX2                !
 ! D182  D(51,38,39,44)         56.0272         estimate D2E/DX2                !
 ! D183  D(75,38,39,40)         -0.5756         estimate D2E/DX2                !
 ! D184  D(75,38,39,44)       -179.8962         estimate D2E/DX2                !
 ! D185  D(35,38,51,46)         55.6138         estimate D2E/DX2                !
 ! D186  D(35,38,51,50)       -124.8665         estimate D2E/DX2                !
 ! D187  D(39,38,51,46)        -56.0275         estimate D2E/DX2                !
 ! D188  D(39,38,51,50)        123.4922         estimate D2E/DX2                !
 ! D189  D(75,38,51,46)        179.7911         estimate D2E/DX2                !
 ! D190  D(75,38,51,50)         -0.6892         estimate D2E/DX2                !
 ! D191  D(38,39,40,41)       -179.1905         estimate D2E/DX2                !
 ! D192  D(38,39,40,76)          0.5704         estimate D2E/DX2                !
 ! D193  D(44,39,40,41)          0.0824         estimate D2E/DX2                !
 ! D194  D(44,39,40,76)        179.8433         estimate D2E/DX2                !
 ! D195  D(38,39,44,43)        179.3675         estimate D2E/DX2                !
 ! D196  D(38,39,44,45)         -0.0736         estimate D2E/DX2                !
 ! D197  D(40,39,44,43)          0.0044         estimate D2E/DX2                !
 ! D198  D(40,39,44,45)       -179.4367         estimate D2E/DX2                !
 ! D199  D(39,40,41,42)         -0.1305         estimate D2E/DX2                !
 ! D200  D(39,40,41,77)       -179.901          estimate D2E/DX2                !
 ! D201  D(76,40,41,42)       -179.8936         estimate D2E/DX2                !
 ! D202  D(76,40,41,77)          0.3358         estimate D2E/DX2                !
 ! D203  D(40,41,42,43)          0.093          estimate D2E/DX2                !
 ! D204  D(40,41,42,78)        179.9895         estimate D2E/DX2                !
 ! D205  D(77,41,42,43)        179.8648         estimate D2E/DX2                !
 ! D206  D(77,41,42,78)         -0.2387         estimate D2E/DX2                !
 ! D207  D(41,42,43,44)         -0.0033         estimate D2E/DX2                !
 ! D208  D(41,42,43,79)        179.9071         estimate D2E/DX2                !
 ! D209  D(78,42,43,44)       -179.8999         estimate D2E/DX2                !
 ! D210  D(78,42,43,79)          0.0104         estimate D2E/DX2                !
 ! D211  D(42,43,44,39)         -0.0443         estimate D2E/DX2                !
 ! D212  D(42,43,44,45)        179.3152         estimate D2E/DX2                !
 ! D213  D(79,43,44,39)       -179.9542         estimate D2E/DX2                !
 ! D214  D(79,43,44,45)         -0.5947         estimate D2E/DX2                !
 ! D215  D(39,44,45,34)         56.141          estimate D2E/DX2                !
 ! D216  D(39,44,45,46)        -55.9209         estimate D2E/DX2                !
 ! D217  D(39,44,45,80)        179.9014         estimate D2E/DX2                !
 ! D218  D(43,44,45,34)       -123.2622         estimate D2E/DX2                !
 ! D219  D(43,44,45,46)        124.6758         estimate D2E/DX2                !
 ! D220  D(43,44,45,80)          0.4981         estimate D2E/DX2                !
 ! D221  D(34,45,46,47)        124.9197         estimate D2E/DX2                !
 ! D222  D(34,45,46,51)        -55.6752         estimate D2E/DX2                !
 ! D223  D(44,45,46,47)       -123.4146         estimate D2E/DX2                !
 ! D224  D(44,45,46,51)         55.9905         estimate D2E/DX2                !
 ! D225  D(80,45,46,47)          0.616          estimate D2E/DX2                !
 ! D226  D(80,45,46,51)       -179.9789         estimate D2E/DX2                !
 ! D227  D(45,46,47,48)        179.5215         estimate D2E/DX2                !
 ! D228  D(45,46,47,81)         -0.4946         estimate D2E/DX2                !
 ! D229  D(51,46,47,48)          0.1587         estimate D2E/DX2                !
 ! D230  D(51,46,47,81)       -179.8574         estimate D2E/DX2                !
 ! D231  D(45,46,51,38)          0.1365         estimate D2E/DX2                !
 ! D232  D(45,46,51,50)       -179.4141         estimate D2E/DX2                !
 ! D233  D(47,46,51,38)        179.5794         estimate D2E/DX2                !
 ! D234  D(47,46,51,50)          0.0288         estimate D2E/DX2                !
 ! D235  D(46,47,48,49)         -0.1107         estimate D2E/DX2                !
 ! D236  D(46,47,48,82)        179.853          estimate D2E/DX2                !
 ! D237  D(81,47,48,49)        179.9053         estimate D2E/DX2                !
 ! D238  D(81,47,48,82)         -0.131          estimate D2E/DX2                !
 ! D239  D(47,48,49,50)         -0.1276         estimate D2E/DX2                !
 ! D240  D(47,48,49,83)       -179.8007         estimate D2E/DX2                !
 ! D241  D(82,48,49,50)        179.9087         estimate D2E/DX2                !
 ! D242  D(82,48,49,83)          0.2356         estimate D2E/DX2                !
 ! D243  D(48,49,50,51)          0.312          estimate D2E/DX2                !
 ! D244  D(48,49,50,84)       -179.8835         estimate D2E/DX2                !
 ! D245  D(83,49,50,51)        179.9833         estimate D2E/DX2                !
 ! D246  D(83,49,50,84)         -0.2122         estimate D2E/DX2                !
 ! D247  D(49,50,51,38)       -179.7486         estimate D2E/DX2                !
 ! D248  D(49,50,51,46)         -0.2625         estimate D2E/DX2                !
 ! D249  D(84,50,51,38)          0.4493         estimate D2E/DX2                !
 ! D250  D(84,50,51,46)        179.9354         estimate D2E/DX2                !
 ! D251  D(2,52,53,85)          77.8153         estimate D2E/DX2                !
 ! D252  D(2,52,53,86)         -43.0386         estimate D2E/DX2                !
 ! D253  D(2,52,53,87)        -160.1108         estimate D2E/DX2                !
 ! D254  D(24,52,53,85)       -105.1485         estimate D2E/DX2                !
 ! D255  D(24,52,53,86)        133.9976         estimate D2E/DX2                !
 ! D256  D(24,52,53,87)         16.9255         estimate D2E/DX2                !
 --------------------------------------------------------------------------------
 Trust Radius=3.00D-01 FncErr=1.00D-07 GrdErr=1.00D-06 EigMax=2.50D+02 EigMin=1.00D-04
 Number of steps in this run=    522 maximum allowed number of steps=    522.
 GradGradGradGradGradGradGradGradGradGradGradGradGradGradGradGradGradGrad

 Leave Link  103 at Tue Dec  5 14:48:30 2023, MaxMem=  2147483648 cpu:             624.3 elap:              25.1
 (Enter /opt/gaussian/g16-c01/g16/l202.exe)
 Stoichiometry    C49H34N4
 Framework group  C1[X(C49H34N4)]
 Deg. of freedom   255
 Full point group                 C1      NOp   1
 Largest Abelian subgroup         C1      NOp   1
 Largest concise Abelian subgroup C1      NOp   1
                         Standard orientation:                         
 ---------------------------------------------------------------------
 Center     Atomic      Atomic             Coordinates (Angstroms)
 Number     Number       Type             X           Y           Z
 ---------------------------------------------------------------------
      1          6           0        1.996420    2.320921    0.293885
      2          6           0        1.581254    0.903913    0.642310
      3          6           0        2.501036   -0.176523    0.482605
      4          6           0        3.915546   -0.023096    0.054150
      5          7           0        4.466543   -1.056286   -0.586346
      6          6           0        5.750005   -0.917918   -0.918168
      7          6           0        6.416844   -2.056231   -1.587419
      8          6           0        5.711048   -3.226099   -1.932073
      9          6           0        6.344191   -4.310282   -2.549692
     10          6           0        7.704228   -4.250156   -2.836593
     11          6           0        8.428686   -3.108218   -2.511808
     12          6           0        7.790737   -2.026264   -1.897543
     13          7           0        6.477405    0.169361   -0.664567
     14          6           0        5.842727    1.145988   -0.015468
     15          6           0        6.603642    2.381273    0.270474
     16          6           0        7.876063    2.606759   -0.291202
     17          6           0        8.594703    3.779757   -0.033746
     18          6           0        8.060007    4.756895    0.799691
     19          6           0        6.809659    4.562651    1.377443
     20          6           0        6.091326    3.389231    1.112715
     21          7           0        4.569237    1.090654    0.379155
     22          6           0        2.033482   -1.479091    0.764481
     23          6           0        0.731858   -1.723287    1.192907
     24          6           0       -0.151132   -0.658720    1.383402
     25          7           0       -1.472035   -0.985091    1.810415
     26          6           0       -1.772720   -1.725742    2.952308
     27          6           0       -0.944381   -2.240514    3.971048
     28          6           0       -1.536316   -2.937373    5.027697
     29          6           0       -2.913484   -3.107306    5.085317
     30          6           0       -3.732247   -2.573606    4.087727
     31          6           0       -3.158869   -1.866966    3.007034
     32          6           0       -3.710736   -1.207732    1.865958
     33          6           0       -5.041615   -1.035606    1.418570
     34          6           0       -5.254011   -0.341410    0.234259
     35          6           0       -4.160617    0.166608   -0.524598
     36          6           0       -2.845294   -0.011502   -0.109715
     37          6           0       -2.646356   -0.678559    1.120645
     38          6           0       -4.611586    0.928576   -1.791579
     39          6           0       -5.566668    2.033168   -1.289045
     40          6           0       -5.430919    3.395942   -1.505397
     41          6           0       -6.390684    4.249669   -0.955259
     42          6           0       -7.468538    3.745212   -0.204078
     43          6           0       -7.613568    2.373672    0.018135
     44          6           0       -6.664185    1.519667   -0.522952
     45          6           0       -6.629359   -0.016103   -0.385246
     46          6           0       -6.588242   -0.568516   -1.824423
     47          6           0       -7.488350   -1.459933   -2.389322
     48          6           0       -7.294368   -1.842254   -3.719535
     49          6           0       -6.218423   -1.337811   -4.470259
     50          6           0       -5.310242   -0.435440   -3.909504
     51          6           0       -5.492287   -0.053217   -2.588816
     52          6           0        0.267786    0.670528    1.160056
     53          6           0       -0.614125    1.845663    1.516975
     54          1           0        1.140548    2.949600    0.034516
     55          1           0        2.521358    2.778287    1.135711
     56          1           0        2.628255    2.340965   -0.597483
     57          1           0        4.646148   -3.303076   -1.719447
     58          1           0        5.772702   -5.200213   -2.799744
     59          1           0        8.200172   -5.091900   -3.312747
     60          1           0        9.491417   -3.055453   -2.734287
     61          1           0        8.388575   -1.149387   -1.650299
     62          1           0        8.320916    1.863556   -0.953647
     63          1           0        9.570796    3.927756   -0.488741
     64          1           0        8.619997    5.668241    1.000485
     65          1           0        6.390973    5.322491    2.033140
     66          1           0        5.116948    3.262229    1.581809
     67          1           0        2.699200   -2.335277    0.647371
     68          1           0        0.420469   -2.753530    1.360825
     69          1           0        0.131725   -2.095963    3.953276
     70          1           0       -0.910968   -3.345134    5.817842
     71          1           0       -3.360021   -3.648511    5.914902
     72          1           0       -4.809189   -2.700517    4.146349
     73          1           0       -5.872257   -1.433148    1.991382
     74          1           0       -2.012177    0.359240   -0.697327
     75          1           0       -3.772367    1.319116   -2.374970
     76          1           0       -4.602975    3.797137   -2.081576
     77          1           0       -6.309810    5.323481   -1.110572
     78          1           0       -8.200956    4.433738    0.212578
     79          1           0       -8.446457    1.991823    0.599668
     80          1           0       -7.465325   -0.408561    0.200493
     81          1           0       -8.323308   -1.853962   -1.818340
     82          1           0       -7.987025   -2.542449   -4.182172
     83          1           0       -6.097969   -1.653507   -5.504841
     84          1           0       -4.485839   -0.052681   -4.500380
     85          1           0       -1.049904    2.286973    0.616021
     86          1           0       -0.032124    2.610286    2.048135
     87          1           0       -1.421115    1.574159    2.203341
 ---------------------------------------------------------------------
 Rotational constants (GHZ):           0.0763962           0.0222595           0.0216925
 Leave Link  202 at Tue Dec  5 14:48:30 2023, MaxMem=  2147483648 cpu:               3.0 elap:               0.2
 (Enter /opt/gaussian/g16-c01/g16/l301.exe)
 Standard basis: 6-311++G(d,p) (5D, 7F)
 Ernie: Thresh=  0.10000D-02 Tol=  0.10000D-05 Strict=F.
 There are  1457 symmetry adapted cartesian basis functions of A   symmetry.
 There are  1404 symmetry adapted basis functions of A   symmetry.
  1404 basis functions,  2214 primitive gaussians,  1457 cartesian basis functions
   178 alpha electrons      178 beta electrons
       nuclear repulsion energy      6034.6980574085 Hartrees.
 IExCor= 7252 DFT=T Ex+Corr=MN15 ExCW=0 ScaHFX=  0.440000
 ScaDFX=  1.000000  1.000000  1.000000  1.000000 ScalE2=  1.000000  1.000000
 IRadAn=      5 IRanWt=     -1 IRanGd=            0 ICorTp=0 IEmpDi=  4
 NAtoms=   87 NActive=   87 NUniq=   87 SFac= 1.00D+00 NAtFMM=   60 NAOKFM=T Big=T
 Integral buffers will be    131072 words long.
 Raffenetti 2 integral format.
 Two-electron integral symmetry is turned on.
 Leave Link  301 at Tue Dec  5 14:48:30 2023, MaxMem=  2147483648 cpu:               2.8 elap:               0.2
 (Enter /opt/gaussian/g16-c01/g16/l302.exe)
 NPDir=0 NMtPBC=     1 NCelOv=     1 NCel=       1 NClECP=     1 NCelD=      1
         NCelK=      1 NCelE2=     1 NClLst=     1 CellRange=     0.0.
 One-electron integrals computed using PRISM.
 One-electron integral symmetry used in STVInt
 NBasis=  1404 RedAO= T EigKep=  1.08D-06  NBF=  1404
 NBsUse=  1378 1.00D-06 EigRej=  9.49D-07 NBFU=  1378
 Precomputing XC quadrature grid using
 IXCGrd= 4 IRadAn=           5 IRanWt=          -1 IRanGd=           0 AccXCQ= 0.00D+00.
 Generated NRdTot=       0 NPtTot=           0 NUsed=           0 NTot=          32
 NSgBfM=  1348  1348  1348  1348  1348 MxSgAt=    87 MxSgA2=    87.
 Leave Link  302 at Tue Dec  5 14:50:20 2023, MaxMem=  2147483648 cpu:            2750.6 elap:             110.2
 (Enter /opt/gaussian/g16-c01/g16/l303.exe)
 DipDrv:  MaxL=1.
 Leave Link  303 at Tue Dec  5 14:50:21 2023, MaxMem=  2147483648 cpu:               6.9 elap:               0.5
 (Enter /opt/gaussian/g16-c01/g16/l401.exe)
 ExpMin= 3.60D-02 ExpMax= 6.29D+03 ExpMxC= 9.49D+02 IAcc=3 IRadAn=         5 AccDes= 0.00D+00
 Harris functional with IExCor= 1009 and IRadAn=       5 diagonalized for initial guess.
 HarFok:  IExCor= 1009 AccDes= 0.00D+00 IRadAn=         5 IDoV= 1 UseB2=F ITyADJ=14
 ICtDFT=  3500011 ScaDFX=  1.000000  1.000000  1.000000  1.000000
 FoFCou: FMM=F IPFlag=           0 FMFlag=      100000 FMFlg1=        2001
         NFxFlg=           0 DoJE=T BraDBF=F KetDBF=T FulRan=T
         wScrn=  0.000000 ICntrl=       500 IOpCl=  0 I1Cent=   200000004 NGrid=           0
         NMat0=    1 NMatS0=      1 NMatT0=    0 NMatD0=    1 NMtDS0=    0 NMtDT0=    0
 Petite list used in FoFCou.
 Harris En= -2105.32722428694    
 JPrj=0 DoOrth=F DoCkMO=F.
 Leave Link  401 at Tue Dec  5 14:50:44 2023, MaxMem=  2147483648 cpu:             594.1 elap:              23.6
 (Enter /opt/gaussian/g16-c01/g16/l502.exe)
 Integral symmetry usage will be decided dynamically.
 Closed shell SCF:
 Using DIIS extrapolation, IDIIS=  1040.
 NGot=  2147483648 LenX=  2143184570 LenY=  2141060264
 Requested convergence on RMS density matrix=1.00D-08 within 128 cycles.
 Requested convergence on MAX density matrix=1.00D-06.
 Requested convergence on             energy=1.00D-06.
 No special actions if energy rises.
 Fock matrices will be formed incrementally for  20 cycles.

 Cycle   1  Pass 1  IDiag  1:
 FoFJK:  IHMeth= 1 ICntrl=       0 DoSepK=F KAlg= 0 I1Cent=           0 FoldK=F
 IRaf= 700000000 NMat=       1 IRICut=       1 DoRegI=T DoRafI=F ISym2E= 0 IDoP0=0 IntGTp=1.
 FoFCou: FMM=T IPFlag=           0 FMFlag=      100000 FMFlg1=        2001
         NFxFlg=           0 DoJE=F BraDBF=F KetDBF=F FulRan=T
         wScrn=  0.000000 ICntrl=         0 IOpCl=  0 I1Cent=           0 NGrid=           0
         NMat0=    1 NMatS0=      1 NMatT0=    0 NMatD0=    1 NMtDS0=    0 NMtDT0=    0
 Symmetry not used in FoFCou.
 FMM levels:  10  Number of levels for PrismC:   9
 E= -2103.67413416513    
 DIIS: error= 2.09D-02 at cycle   1 NSaved=   1.
 NSaved= 1 IEnMin= 1 EnMin= -2103.67413416513     IErMin= 1 ErrMin= 2.09D-02
 ErrMax= 2.09D-02  0.00D+00 EMaxC= 1.00D-01 BMatC= 1.13D+00 BMatP= 1.13D+00
 IDIUse=3 WtCom= 7.91D-01 WtEn= 2.09D-01
 Coeff-Com:  0.100D+01
 Coeff-En:   0.100D+01
 Coeff:      0.100D+01
 Gap=     0.183 Goal=   None    Shift=    0.000
 GapD=    0.183 DampG=1.000 DampE=0.500 DampFc=0.5000 IDamp=-1.
 Damping current iteration by 5.00D-01
 RMSDP=2.89D-02 MaxDP=4.83D+00              OVMax= 1.84D-01

 Cycle   2  Pass 1  IDiag  1:
 RMSU=  8.68D-03    CP:  8.02D-01
 E= -2104.15974600222     Delta-E=       -0.485611837091 Rises=F Damp=T
 DIIS: error= 4.79D-03 at cycle   2 NSaved=   2.
 NSaved= 2 IEnMin= 2 EnMin= -2104.15974600222     IErMin= 2 ErrMin= 4.79D-03
 ErrMax= 4.79D-03  0.00D+00 EMaxC= 1.00D-01 BMatC= 1.13D-01 BMatP= 1.13D+00
 IDIUse=3 WtCom= 9.52D-01 WtEn= 4.79D-02
 Coeff-Com: -0.910D-01 0.109D+01
 Coeff-En:   0.000D+00 0.100D+01
 Coeff:     -0.867D-01 0.109D+01
 Gap=     0.205 Goal=   None    Shift=    0.000
 RMSDP=1.73D-02 MaxDP=2.32D+00 DE=-4.86D-01 OVMax= 1.91D-01

 Cycle   3  Pass 1  IDiag  1:
 RMSU=  7.77D-03    CP:  5.40D-01  7.95D-01
 E= -2104.59616665065     Delta-E=       -0.436420648433 Rises=F Damp=F
 DIIS: error= 8.35D-03 at cycle   3 NSaved=   3.
 NSaved= 3 IEnMin= 3 EnMin= -2104.59616665065     IErMin= 2 ErrMin= 4.79D-03
 ErrMax= 8.35D-03  0.00D+00 EMaxC= 1.00D-01 BMatC= 7.04D-02 BMatP= 1.13D-01
 IDIUse=3 WtCom= 9.17D-01 WtEn= 8.35D-02
 Coeff-Com: -0.119D+00 0.518D+00 0.601D+00
 Coeff-En:   0.000D+00 0.000D+00 0.100D+01
 Coeff:     -0.109D+00 0.475D+00 0.634D+00
 Gap=     0.199 Goal=   None    Shift=    0.000
 RMSDP=3.54D-03 MaxDP=5.10D-01 DE=-4.36D-01 OVMax= 1.01D-01

 Cycle   4  Pass 1  IDiag  1:
 RMSU=  2.11D-03    CP:  5.06D-01  9.58D-01  8.21D-01
 E= -2104.63893887825     Delta-E=       -0.042772227598 Rises=F Damp=F
 DIIS: error= 5.76D-03 at cycle   4 NSaved=   4.
 NSaved= 4 IEnMin= 4 EnMin= -2104.63893887825     IErMin= 2 ErrMin= 4.79D-03
 ErrMax= 5.76D-03  0.00D+00 EMaxC= 1.00D-01 BMatC= 2.68D-02 BMatP= 7.04D-02
 IDIUse=3 WtCom= 9.42D-01 WtEn= 5.76D-02
 Coeff-Com: -0.537D-01 0.166D+00 0.410D+00 0.477D+00
 Coeff-En:   0.000D+00 0.000D+00 0.306D+00 0.694D+00
 Coeff:     -0.506D-01 0.157D+00 0.404D+00 0.490D+00
 Gap=     0.172 Goal=   None    Shift=    0.000
 RMSDP=1.65D-03 MaxDP=2.04D-01 DE=-4.28D-02 OVMax= 5.12D-02

 Cycle   5  Pass 1  IDiag  1:
 RMSU=  7.88D-04    CP:  4.90D-01  9.47D-01  8.42D-01  4.71D-01
 E= -2104.66502440932     Delta-E=       -0.026085531065 Rises=F Damp=F
 DIIS: error= 1.09D-03 at cycle   5 NSaved=   5.
 NSaved= 5 IEnMin= 5 EnMin= -2104.66502440932     IErMin= 5 ErrMin= 1.09D-03
 ErrMax= 1.09D-03  0.00D+00 EMaxC= 1.00D-01 BMatC= 1.17D-03 BMatP= 2.68D-02
 IDIUse=3 WtCom= 9.89D-01 WtEn= 1.09D-02
 Coeff-Com: -0.182D-01 0.478D-01 0.169D+00 0.258D+00 0.543D+00
 Coeff-En:   0.000D+00 0.000D+00 0.000D+00 0.000D+00 0.100D+01
 Coeff:     -0.180D-01 0.473D-01 0.167D+00 0.255D+00 0.548D+00
 Gap=     0.174 Goal=   None    Shift=    0.000
 RMSDP=3.88D-04 MaxDP=5.10D-02 DE=-2.61D-02 OVMax= 9.05D-03

 Cycle   6  Pass 1  IDiag  1:
 RMSU=  2.48D-04    CP:  4.90D-01  9.48D-01  8.57D-01  5.29D-01  6.90D-01
 E= -2104.66614317203     Delta-E=       -0.001118762717 Rises=F Damp=F
 DIIS: error= 3.70D-04 at cycle   6 NSaved=   6.
 NSaved= 6 IEnMin= 6 EnMin= -2104.66614317203     IErMin= 6 ErrMin= 3.70D-04
 ErrMax= 3.70D-04  0.00D+00 EMaxC= 1.00D-01 BMatC= 1.44D-04 BMatP= 1.17D-03
 IDIUse=3 WtCom= 9.96D-01 WtEn= 3.70D-03
 Coeff-Com: -0.409D-02 0.864D-02 0.466D-01 0.799D-01 0.303D+00 0.566D+00
 Coeff-En:   0.000D+00 0.000D+00 0.000D+00 0.000D+00 0.826D-01 0.917D+00
 Coeff:     -0.407D-02 0.861D-02 0.464D-01 0.796D-01 0.303D+00 0.567D+00
 Gap=     0.173 Goal=   None    Shift=    0.000
 RMSDP=1.21D-04 MaxDP=2.35D-02 DE=-1.12D-03 OVMax= 2.69D-03

 Cycle   7  Pass 1  IDiag  1:
 RMSU=  8.30D-05    CP:  4.90D-01  9.46D-01  8.66D-01  5.25D-01  7.24D-01
                    CP:  8.29D-01
 E= -2104.66628449763     Delta-E=       -0.000141325598 Rises=F Damp=F
 DIIS: error= 1.58D-04 at cycle   7 NSaved=   7.
 NSaved= 7 IEnMin= 7 EnMin= -2104.66628449763     IErMin= 7 ErrMin= 1.58D-04
 ErrMax= 1.58D-04  0.00D+00 EMaxC= 1.00D-01 BMatC= 1.83D-05 BMatP= 1.44D-04
 IDIUse=3 WtCom= 9.98D-01 WtEn= 1.58D-03
 Coeff-Com:  0.378D-04-0.135D-02 0.542D-02 0.121D-01 0.109D+00 0.326D+00
 Coeff-Com:  0.549D+00
 Coeff-En:   0.000D+00 0.000D+00 0.000D+00 0.000D+00 0.000D+00 0.291D-01
 Coeff-En:   0.971D+00
 Coeff:      0.377D-04-0.134D-02 0.541D-02 0.121D-01 0.109D+00 0.325D+00
 Coeff:      0.550D+00
 Gap=     0.173 Goal=   None    Shift=    0.000
 RMSDP=4.26D-05 MaxDP=4.92D-03 DE=-1.41D-04 OVMax= 9.63D-04

 Cycle   8  Pass 1  IDiag  1:
 RMSU=  3.14D-05    CP:  4.90D-01  9.47D-01  8.67D-01  5.26D-01  7.32D-01
                    CP:  8.36D-01  9.35D-01
 E= -2104.66630123941     Delta-E=       -0.000016741775 Rises=F Damp=F
 DIIS: error= 4.60D-05 at cycle   8 NSaved=   8.
 NSaved= 8 IEnMin= 8 EnMin= -2104.66630123941     IErMin= 8 ErrMin= 4.60D-05
 ErrMax= 4.60D-05  0.00D+00 EMaxC= 1.00D-01 BMatC= 1.83D-06 BMatP= 1.83D-05
 IDIUse=1 WtCom= 1.00D+00 WtEn= 0.00D+00
 Coeff-Com:  0.667D-03-0.214D-02-0.397D-02-0.608D-02 0.155D-01 0.978D-01
 Coeff-Com:  0.288D+00 0.610D+00
 Coeff:      0.667D-03-0.214D-02-0.397D-02-0.608D-02 0.155D-01 0.978D-01
 Coeff:      0.288D+00 0.610D+00
 Gap=     0.173 Goal=   None    Shift=    0.000
 RMSDP=1.86D-05 MaxDP=2.96D-03 DE=-1.67D-05 OVMax= 3.82D-04

 Cycle   9  Pass 1  IDiag  1:
 RMSU=  1.02D-05    CP:  4.90D-01  9.48D-01  8.67D-01  5.25D-01  7.36D-01
                    CP:  8.55D-01  9.92D-01  9.68D-01
 E= -2104.66630281133     Delta-E=       -0.000001571920 Rises=F Damp=F
 DIIS: error= 1.93D-05 at cycle   9 NSaved=   9.
 NSaved= 9 IEnMin= 9 EnMin= -2104.66630281133     IErMin= 9 ErrMin= 1.93D-05
 ErrMax= 1.93D-05  0.00D+00 EMaxC= 1.00D-01 BMatC= 3.71D-07 BMatP= 1.83D-06
 IDIUse=1 WtCom= 1.00D+00 WtEn= 0.00D+00
 Coeff-Com:  0.428D-03-0.120D-02-0.307D-02-0.545D-02-0.380D-02 0.207D-01
[...]
 .12807854,0.00775448,-0.00104067,-0.00021270,-0.00055350,-0.00038326,0
 .00061941,0.00013417,-0.00024357,-0.00020033,0.00032269,0.00000117,0.0
 0000254,0.00000384,-0.00000003,0.00000005,0.00000062,-0.00000066,-0.00
 000005,0.00000030,0.00000015,0.00000019,0.00000014,-0.00000101,-0.0000
 0050,0.00000040,0.00000101,0.00000008,0.00000103,0.00000095,-0.0000000
 3,0.00000015,0.00000314,-0.00000067,0.00000095,-0.00000046,-0.00000067
 ,-0.00000109,-0.00001517,0.00000764,0.00000122,0.00003132,0.00000092,-
 0.00004337,-0.00012533,-0.00014169,0.00010106,0.00002024,-0.00000040,-
 0.00001492,0.00000351,0.00000234,-0.00001177,0.00000221,0.00000293,-0.
 00001166,-0.00000627,0.00000127,0.00000557,-0.00001622,0.00000392,-0.0
 0000598,-0.00008993,-0.00021616,-0.00006600,-0.00000156,-0.00000668,-0
 .00000700,0.00000326,0.00000736,-0.00000353,-0.00000632,-0.00000665,0.
 00001304,-0.00000911,-0.00000517,0.00000383,-0.00000380,0.00000251,-0.
 00000237,-0.00001251,0.00000038,0.00000108,-0.00000166,-0.00000095,-0.
 00000326,-0.00000306,0.00000493,0.00000050,-0.00000081,0.00000622,0.00
 000221,0.00000292,-0.00000270,0.00000057,-0.00888854,0.01161310,-0.000
 38519,0.14571870,-0.00002735,0.00072868,0.00034048,0.00142582,0.000295
 76,0.00191701,-0.00015211,-0.00007992,0.00033919,0.00039450,-0.0001382
 9,0.00013255,-0.00017850,-0.00003322,-0.00010588,0.00012619,-0.0000498
 1,0.00006549,-0.00000824,0.00000556,-0.00000490,0.00001354,0.00000090,
 0.00000354,-0.00000270,0.00000106,-0.00000278,0.00000078,0.00000111,0.
 00000063,-0.00000373,0.00000079,-0.00000270,-0.00000057,-0.00000215,0.
 00000027,-0.00006761,0.00013832,-0.00000347,0.00000204,-0.00010191,-0.
 00000839,-0.00000604,0.00000734,0.00000002,0.00001128,0.00000602,0.000
 00251,0.00000514,0.00001525,0.00000302,-0.00001124,0.00000251,-0.00000
 449,0.00001025,0.00000066,0.00000475,-0.00004514,0.00000510,-0.0000253
 6,-0.00009239,0.00018015,-0.00010478,-0.00003419,-0.00011744,-0.000124
 44,0.00010364,-0.00018855,0.00111573,-0.00288892,-0.00196921,-0.001174
 03,0.00017340,-0.00011938,-0.00040878,-0.00003991,-0.00002572,-0.00037
 974,-0.00002184,0.00003491,0.00006049,-0.00001316,0.00002162,0.0000000
 7,0.00001372,0.00000168,0.00002754,0.00000099,0.00000775,-0.00001209,0
 .00011723,0.00000419,0.00002329,0.00011766,0.00004019,0.00007620,0.000
 00144,-0.00000857,0.00001701,0.00002159,0.00000733,0.00000589,-0.00003
 350,-0.00001208,0.00003706,0.00001195,-0.00000461,-0.00010343,-0.00037
 200,0.00013276,0.00015909,0.00001428,-0.00000003,0.00000306,-0.0000151
 4,-0.00001637,-0.00001211,0.00000576,0.00000235,0.00000819,-0.00000041
 ,0.00000655,0.00000012,0.00000010,0.00000554,-0.00000030,-0.00000550,0
 .00000190,-0.00000374,0.00001622,-0.00001196,0.00001272,-0.00000278,-0
 .00000066,-0.00000317,0.00001200,0.00001005,0.00000110,-0.00000266,-0.
 00000125,-0.00000354,0.00000046,-0.00000117,-0.00000089,-0.00000021,-0
 .00000193,0.00000130,0.00000739,0.00000234,-0.00000159,-0.00000646,0.0
 0000673,-0.00001034,0.01286214,-0.02236624,-0.00014857,0.12744061,-0.2
 2844457,-0.01349709,0.00024826,0.00008682,-0.00071820,-0.00055383,-0.0
 0004457,-0.00032943,0.00027223,0.00046495,-0.00003662,0.00000208,0.000
 00528,0.00000509,0.00000064,0.00000198,0.00000120,-0.00000090,-0.00000
 057,0.00000011,-0.00000144,-0.00000061,-0.00000007,-0.00000170,-0.0000
 0048,0.00000022,0.00000795,-0.00000168,0.00000322,0.00000123,0.0000013
 4,0.00000070,0.00000192,-0.00000071,0.00000110,-0.00000510,0.00000802,
 -0.00000063,-0.00001414,-0.00000407,0.00000410,0.00000148,0.00000423,-
 0.00003753,-0.00023221,-0.00018739,0.00013641,-0.00000355,-0.00004461,
 -0.00001589,-0.00000194,-0.00000677,0.00001149,0.00000204,-0.00000407,
 0.00000605,0.00000704,-0.00000197,0.00000565,0.00001201,-0.00000525,0.
 00000048,-0.00002083,0.00002262,0.00006864,-0.00000237,-0.00000150,-0.
 00000027,-0.00000085,-0.00000402,-0.00000391,0.00000213,0.00000270,-0.
 00000314,0.00000217,0.00000203,-0.00000145,0.00000100,-0.00000130,0.00
 000034,0.00000455,0.00000121,-0.00000086,0.00000013,0.00000023,0.00000
 138,0.00000056,-0.00000199,0.00000033,-0.00000045,-0.00000208,-0.00000
 009,-0.00000200,-0.00000046,0.00000189,-0.00018094,0.00013189,-0.00020
 244,-0.13674930,0.24930891,-0.00040687,-0.00051101,-0.00001412,-0.0008
 0797,-0.00075935,0.00037473,0.00023440,0.00038431,-0.00021223,0.000022
 10,-0.00008069,0.00004885,-0.00000825,0.00003130,-0.00000133,0.0000154
 1,-0.00004560,0.00000510,0.00000396,0.00001027,-0.00000361,0.00000868,
 -0.00000024,0.00000017,0.00000197,0.00000078,-0.00000039,0.00000130,0.
 00000235,0.00000028,-0.00000279,0.00000373,-0.00000165,-0.00000288,0.0
 0000131,-0.00000077,0.00000025,0.00006826,0.00001864,-0.00006764,-0.00
 002811,-0.00001319,0.00000700,-0.00000132,-0.00000504,0.00000166,-0.00
 000044,0.00000069,0.00000239,0.00000194,-0.00000084,-0.00000188,-0.000
 00092,-0.00000361,0.00001055,0.00000384,-0.00000360,-0.00001173,0.0000
 0268,-0.00002570,0.00009702,0.00006120,-0.00009620,-0.00005225,-0.0003
 0218,0.00014099,-0.00025686,0.00037989,-0.00030857,0.00014321,0.000295
 98,0.00007765,-0.00048331,0.00136366,-0.00036685,0.00013665,-0.0001053
 8,0.00060325,-0.00000351,-0.00002981,-0.00003489,-0.00000985,-0.000025
 20,-0.00003224,0.00002032,0.00000375,-0.00006005,0.00001340,0.00000179
 ,0.00006984,-0.00012156,-0.00007716,-0.00005109,-0.00003000,0.00005327
 ,-0.00001022,0.00011085,0.00000740,-0.00002472,0.00000070,0.00003525,0
 .00007148,-0.00011695,-0.00004653,0.00011705,0.00004448,-0.00038294,-0
 .00024633,0.00071539,0.00016768,-0.00039243,-0.00002237,-0.00001167,-0
 .00001675,-0.00001313,-0.00002336,-0.00000141,0.00000691,0.00000632,-0
 .00000106,-0.00000745,-0.00000261,0.00000691,0.00000645,0.00000367,0.0
 0000227,0.00000309,0.00000240,0.00000144,-0.00000987,0.00000451,-0.000
 00182,0.00001026,0.00000578,0.00001538,-0.00000797,-0.00000611,0.00000
 075,0.00000103,0.00000084,0.00000236,0.00000144,-0.00000193,0.00000159
 ,-0.00000086,0.00000134,-0.00000042,0.00000615,-0.00000385,0.00000152,
 0.00000007,0.00002156,-0.00000759,-0.00145181,0.00559870,-0.00147764,0
 .00621678,-0.01351905,-0.04364519,-0.00032413,-0.00080853,-0.00149578,
 -0.00026550,0.00001793,0.00012810,0.00017883,0.00014033,-0.00005228,0.
 00000079,-0.00000067,0.00000314,-0.00000039,0.00000172,0.00000095,0.,0
 .00000066,0.00000083,0.00000051,0.00000014,0.00000087,-0.00000282,-0.0
 0000179,0.00000064,0.00000078,0.00000037,0.00000231,0.00000148,0.00000
 002,0.00000202,0.00000130,-0.00000131,0.00000302,-0.00000415,0.0000012
 7,0.00000823,-0.00001754,0.00000432,0.00002970,0.00001253,0.00003181,0
 .00000069,0.00007416,0.00005485,-0.00002137,0.00001742,0.00004072,-0.0
 0001123,0.00000080,0.00000578,-0.00001248,0.00000226,0.00000310,-0.000
 00187,-0.00000387,0.00000063,-0.00000459,-0.00000643,-0.00001079,0.000
 00266,0.00011618,0.00013183,0.00013845,0.00000167,0.00000809,0.0000185
 9,-0.00000198,-0.00000564,0.00000574,0.00000467,0.00000327,-0.00000546
 ,0.00000204,0.00000035,0.00000031,0.00000046,0.00000094,0.00000005,0.0
 0000364,0.00000015,-0.00000054,0.00000067,-0.00000054,0.00000095,0.000
 00120,-0.00000027,-0.00000021,0.00000031,-0.00000205,-0.00000015,-0.00
 000132,0.00000156,0.00000056,0.01605130,-0.02365132,-0.00169478,-0.008
 31434,0.01210152,0.04597778,-0.00001145,-0.00038766,-0.00015411,-0.000
 30144,-0.00273266,0.00035862,-0.00083308,0.00020904,-0.00040905,0.0001
 0763,-0.00011083,0.00025963,-0.00016692,-0.00008425,-0.00005666,0.0000
 7039,0.00005121,-0.00000531,-0.00001647,-0.00001446,-0.00000484,-0.000
 00446,0.00000204,-0.00000082,-0.00000802,0.00000025,-0.00000240,-0.000
 00243,-0.00000475,-0.00000008,0.00000301,-0.00000650,-0.00000042,0.000
 00716,-0.00000613,0.00000254,-0.00005278,-0.00002682,-0.00001191,0.000
 13606,-0.00002344,0.00002360,-0.00002303,0.00001347,0.00000065,0.00000
 680,0.00000618,0.00000297,-0.00000018,0.00000842,0.00000099,-0.0000037
 9,0.00000505,-0.00000065,-0.00001203,-0.00000700,-0.00000121,0.0000018
 1,-0.00000300,0.00000454,-0.00016528,0.00002731,-0.00002567,0.00015823
 ,0.00001134,0.00002331,-0.00021954,-0.00011197,0.00000460,-0.00107699,
 0.00122693,-0.00079600,0.00053646,0.00246629,-0.00010062,0.00018086,-0
 .00016838,0.00046261,0.00000398,-0.00000219,-0.00011627,0.00007637,0.0
 0007397,0.00015234,-0.00009632,0.00000572,0.00003681,-0.00002528,-0.00
 000902,-0.00008803,0.00009156,-0.00015319,-0.00004051,0.00001269,-0.00
 012079,-0.00014560,-0.00008440,-0.00005663,0.00009958,-0.00007680,0.00
 002238,-0.00005451,0.00001950,-0.00003666,0.00008746,-0.00000123,-0.00
 005273,0.00013152,0.00036055,0.00127993,-0.00042996,0.00001535,-0.0000
 0043,0.00002083,-0.00000469,-0.00000527,-0.00000941,0.00001264,-0.0000
 0521,0.00001068,-0.00000210,0.00000428,0.00000173,-0.00000135,0.000001
 14,-0.00000193,-0.00000696,-0.00000561,-0.00000529,0.00000448,-0.00000
 422,0.00000051,-0.00000672,-0.00000093,0.00000170,0.00000638,0.0000054
 0,0.00000560,-0.00000345,0.00000379,-0.00000570,-0.00000284,-0.0000057
 2,-0.00000118,0.00000340,-0.00000298,0.00000051,0.00000313,0.00000354,
 0.00000370,-0.00000244,0.00000360,-0.00002195,-0.01409960,-0.00139413,
 -0.01138558,-0.18025610,-0.00956402,-0.13990209,-0.00014864,0.00004861
 ,0.00012771,0.00018037,-0.00004513,-0.00002607,-0.00000994,-0.00006104
 ,-0.00004026,-0.00000022,0.00000747,0.00000046,0.00000118,-0.00000254,
 -0.00000014,-0.00000103,-0.00000222,-0.00000091,-0.00000273,-0.0000013
 5,-0.00000122,0.00000364,0.00000350,0.00000076,0.00000386,-0.00000269,
 0.00000031,-0.00000296,0.00000071,-0.00000142,-0.00000278,0.00000225,-
 0.00000150,0.00000127,0.00000411,-0.00000150,0.00000923,-0.00001052,-0
 .00000935,0.00000907,-0.00003288,0.00001130,0.00004094,-0.00001165,0.0
 0001429,-0.00004891,-0.00007613,0.00001012,-0.00000055,-0.00001647,0.0
 0000066,-0.00000783,-0.00000578,0.00000307,-0.00000438,0.00000079,-0.0
 0000432,0.00000790,0.00000555,-0.00000196,0.00008523,-0.00006022,0.000
 04394,-0.00000070,-0.00000510,-0.00000937,-0.00000054,-0.00000114,-0.0
 0000523,0.00000132,0.00000171,-0.00000240,0.00000123,0.00000176,-0.000
 00095,0.00000018,-0.00000016,0.00000055,0.00000458,0.00000024,-0.00000
 079,0.00000026,0.00000099,0.00000039,0.00000091,-0.00000145,-0.0000006
 0,-0.00000020,-0.00000147,-0.00000016,-0.00000051,-0.00000028,0.000000
 22,0.01094277,0.00080488,0.01120549,-0.01113716,-0.00167369,-0.0114766
 8,0.19582488,0.00047468,-0.00047555,0.00093412,-0.00234717,-0.00429285
 ,0.00155258,-0.00106448,0.00098784,-0.00024136,0.00013808,-0.00030211,
 0.00024950,-0.00023393,-0.00008669,-0.00010568,0.00010800,0.00001885,0
 .00000264,-0.00002151,-0.00001061,-0.00000888,0.00000065,0.00000177,-0
 .00000258,-0.00000912,0.00000252,-0.00000257,-0.00000275,-0.00000435,-
 0.00000070,0.00000139,-0.00000656,-0.00000108,0.00000716,-0.00000758,0
 .00000311,-0.00005766,0.00002128,-0.00000028,0.00006804,-0.00004436,0.
 00001263,-0.00001441,0.00000994,-0.00000672,0.00000579,0.00000675,0.00
 000297,0.00000243,0.00000797,0.00000136,-0.00000439,0.00000311,-0.0000
 0141,-0.00000229,0.00000093,-0.00000382,-0.00001226,-0.00000074,-0.000
 00856,-0.00009026,0.00006954,-0.00009282,0.00018223,-0.00032623,0.0001
 8970,-0.00052175,0.00017283,-0.00013093,-0.00051574,0.00036220,-0.0005
 8320,-0.00035511,-0.00084890,0.00022349,0.00046398,-0.00028160,0.00142
 433,-0.00004127,0.00004912,-0.00019147,0.00008015,-0.00002566,-0.00001
 133,-0.00003800,0.00000431,-0.00011791,0.00005525,-0.00000709,0.000064
 06,-0.00033367,-0.00001660,0.00008254,-0.00001079,-0.00001463,-0.00016
 144,0.00002147,0.00005065,0.00003240,-0.00006692,-0.00004590,-0.000042
 09,0.00018383,0.00007919,-0.00003721,-0.00031214,0.00006933,0.00008226
 ,0.00213085,-0.00217133,-0.00034961,-0.00005460,-0.00000915,-0.0000180
 9,0.00005063,0.00005000,0.00004279,-0.00000867,-0.00000488,-0.00001481
 ,0.00000005,-0.00002729,0.00000322,0.00000287,-0.00002453,-0.00000274,
 0.00001119,-0.00000391,0.00001409,-0.00005201,0.00004810,-0.00005025,0
 .00002949,0.00000569,0.00003632,-0.00005050,-0.00003383,-0.00001796,0.
 00001014,-0.00000066,0.00001824,0.00000213,0.00001039,0.00000190,-0.00
 000341,0.00001210,-0.00000225,-0.00001734,-0.00000607,-0.00000635,0.00
 002441,-0.00002289,0.00003722,-0.01745914,-0.00013124,-0.02029195,-0.0
 0808993,-0.04704348,-0.00806101,0.00062082,-0.00001762,-0.00025074,-0.
 00025807,0.00008348,0.00012420,0.00008879,0.00032058,-0.00013974,0.000
 00073,0.00001053,0.00000415,0.00000104,-0.00000289,0.00000046,-0.00000
 174,-0.00000224,-0.00000055,-0.00000258,-0.00000142,-0.00000090,0.0000
 0237,0.00000276,0.00000162,0.00000444,-0.00000218,0.00000166,-0.000002
 26,0.00000074,-0.00000056,-0.00000076,0.00000132,0.00000059,-0.0000013
 7,0.00000289,0.00000195,-0.00000507,-0.00000598,0.00000723,0.00004141,
 -0.00001898,0.00002250,0.00003943,0.00000927,-0.00003073,0.00002555,-0
 .00000135,-0.00003084,0.00000627,0.00000015,-0.00002817,0.00000128,0.0
 0000294,-0.00001796,-0.00002139,0.00000380,-0.00001043,-0.00003506,0.0
 0001008,-0.00000944,-0.00005866,-0.00002907,0.00001804,0.00000353,0.00
 000083,0.00001595,0.00000191,0.00000721,0.00000981,-0.00000491,-0.0000
 0633,0.00001104,-0.00000880,-0.00000620,0.00000697,-0.00000634,0.00000
 598,-0.00000118,-0.00001531,0.00000044,0.00000194,-0.00000091,-0.00000
 206,-0.00000248,-0.00000259,0.00000645,0.00000054,-0.00000112,0.000006
 46,0.00000287,0.00000457,-0.00000147,0.00000232,0.00012388,-0.00093671
 ,-0.00055858,0.01639168,0.00229189,0.01937124,0.01080563,0.05249958,0.
 00022045,0.00006222,-0.00030251,0.00044757,0.00123723,-0.00022255,0.00
 037473,0.00006009,0.00010709,0.00011021,0.00009563,-0.00003153,-0.0000
 4731,-0.00003851,-0.00001799,0.00004143,0.00005523,0.00002203,-0.00000
 649,-0.00001432,-0.00000417,-0.00000359,0.00000286,-0.00000151,-0.0000
 0703,0.00000030,-0.00000105,-0.00000108,-0.00000293,-0.00000021,0.0000
 0333,-0.00000464,-0.00000023,0.00000506,-0.00000367,0.00000414,-0.0000
 2635,-0.00003132,-0.00002417,0.00008116,-0.00001664,0.00003083,-0.0000
 1167,0.00000911,-0.00000252,0.00000306,0.00000436,0.00000354,0.0000007
 7,0.00000284,-0.00000112,-0.00000017,0.00000287,0.00000074,-0.00001084
 ,-0.00000557,-0.00000081,0.00000842,-0.00000250,0.00000606,-0.00011788
 ,-0.00002544,0.00001587,-0.00004103,-0.00010946,0.00006376,0.00014028,
 -0.00013534,-0.00008386,-0.00121381,0.00056348,-0.00019680,0.00048971,
 0.00228109,0.00007781,0.00015105,-0.00002643,-0.00018044,0.00007773,-0
 .00011767,0.00001246,-0.00004672,-0.00001997,-0.00012292,0.00009436,0.
 00002046,0.00000781,0.00000791,-0.00001878,0.00002066,-0.00014487,-0.0
 0020009,0.00000260,0.00040347,0.00004283,0.00037576,-0.00017403,-0.000
 02036,0.00011097,0.00001572,-0.00001668,-0.00019877,0.00036052,0.00006
 582,-0.00008439,-0.00016297,0.00004419,-0.00036226,-0.00045815,0.00056
 393,0.00035426,-0.00004911,-0.00002013,-0.00003568,0.00000078,0.000000
 35,0.00001394,-0.00004082,0.00000519,-0.00002483,0.00000647,0.00001767
 ,0.00000311,0.00000055,0.00001407,0.00000050,0.00000785,0.00000362,0.0
 0001620,0.00001165,-0.00000049,0.00001439,0.00000469,-0.00000169,-0.00
 000470,-0.00001070,-0.00001962,-0.00001907,0.00000861,0.00000364,0.000
 00704,-0.00000056,0.00000626,0.00000010,-0.00000159,0.00000452,0.00000
 377,-0.00001240,0.00000411,-0.00001367,0.00002741,-0.00001636,0.000025
 87,0.00462594,-0.00031873,0.00362058,-0.14057789,-0.01082633,-0.187234
 40,-0.00018776,-0.00022949,0.00028302,-0.00010684,0.00006491,0.0000574
 4,-0.00011271,-0.00002317,0.00015795,0.00000045,0.00000552,0.00000080,
 0.00000100,-0.00000178,0.00000003,-0.00000106,-0.00000197,-0.00000069,
 -0.00000207,-0.00000067,-0.00000076,0.00000276,0.00000235,0.00000039,0
 .00000148,-0.00000152,-0.00000023,-0.00000268,0.00000025,-0.00000084,-
 0.00000233,0.00000193,-0.00000109,0.00000165,0.00000132,-0.00000111,0.
 00000760,-0.00000807,-0.00000559,-0.00000268,0.00000522,0.00002077,0.0
 0001090,-0.00005188,0.00001798,0.00002213,0.00002363,0.00000390,-0.000
 00192,-0.00000119,0.00000325,0.00000541,-0.00000109,-0.00000121,0.0000
 0935,-0.00000360,0.00001437,-0.00000772,-0.00000523,0.00000411,-0.0000
 4712,-0.00006114,-0.00005939,0.00000305,0.00000800,0.00001337,0.000003
 45,-0.00000147,0.00000435,0.00000089,-0.00000622,-0.00000237,0.0000022
 5,-0.00000345,-0.00000261,0.00000375,-0.00000316,-0.00000404,-0.000003
 65,-0.00000008,0.00000067,-0.00000089,-0.00000235,-0.00000059,-0.00000
 241,0.00000306,0.00000118,-0.00000166,0.00000467,0.00000245,0.00000342
 ,-0.00000158,0.00000360,-0.01990548,-0.00069375,-0.01922193,0.00349936
 ,0.00078891,0.00247579,0.15224626,0.00703279,0.20048730\\0.00000109,-0
 .00000141,-0.00000468,-0.00000313,-0.00000240,-0.00000104,-0.00000040,
 0.00000200,-0.00000148,0.00000298,-0.00000040,-0.00000038,-0.00000082,
 0.00000033,-0.00000139,-0.00000124,0.00000188,0.00000497,-0.00000051,-
 0.00000226,-0.00000057,0.00000225,0.00000045,0.00000021,-0.00000248,0.
 00000044,0.00000016,-0.00000078,-0.00000051,0.00000046,0.00000158,-0.0
 0000166,0.00000107,-0.00000177,0.00000225,0.00000078,0.00000258,-0.000
 00038,-0.00000809,-0.00000308,-0.00000206,0.00001920,0.00000009,0.0000
 0327,-0.00000577,-0.00000045,-0.00000227,-0.00000114,0.00000101,0.0000
 0247,0.00000112,-0.00000061,0.00000057,-0.00000003,-0.00000236,-0.0000
 0038,-0.00000050,0.00000311,0.00000048,0.00000013,-0.00000125,0.000001
 08,-0.00000563,0.00000133,-0.00000189,0.00000191,-0.00000180,-0.000000
 02,-0.00000173,0.00000534,-0.00000195,0.00000364,-0.00000236,0.0000031
 8,-0.00000432,0.,-0.00000083,0.00000141,0.00000096,0.00000088,-0.00000
 225,0.00000051,0.00000004,0.00000101,0.00000090,0.00000074,0.00000090,
 -0.00000087,0.00000006,-0.00000182,-0.00000064,-0.00000106,0.00000513,
 0.00000258,0.00000168,-0.00000484,-0.00000226,-0.00000166,-0.00000048,
 0.00000265,-0.00000048,0.00000071,-0.00000044,0.00000136,-0.00000162,-
 0.00000118,0.00000029,0.00000109,0.00000026,0.00000133,0.00000162,-0.0
 0000027,-0.00000398,0.00000045,0.00000030,0.00000038,-0.00000241,0.000
 00005,-0.00000033,-0.00000047,0.00000008,-0.00000012,-0.00000051,0.000
 00027,-0.00000022,-0.00000080,-0.00000042,-0.00000027,-0.00000037,0.00
 000049,0.00000171,0.00000062,-0.00000059,-0.00000215,-0.00000057,0.000
 00178,0.00000152,0.00000038,0.00000013,-0.00000110,-0.00000097,-0.0000
 0015,-0.00000034,0.00000041,0.00000019,-0.00000071,-0.00000011,-0.0000
 0016,-0.00000136,-0.00000046,-0.00000207,0.00000006,-0.00000034,-0.000
 00106,0.00000135,0.00000120,0.00000110,-0.00000100,0.00000056,0.000000
 55,0.00000057,0.00000226,-0.00000023,0.00000167,-0.00000022,-0.0000013
 5,0.00000035,0.00000276,-0.00000050,0.00000038,0.00000070,0.00000042,0
 .00000013,0.00000067,-0.00000016,0.00000051,0.00000079,-0.00000075,0.0
 0000072,0.00000087,0.00000034,0.00000020,0.00000042,0.00000041,0.00000
 034,0.00000060,-0.00000021,-0.00000031,0.00000015,0.00000051,0.0000001
 0,0.00000002,0.00000078,0.00000040,0.00000035,0.00000006,-0.00000013,-
 0.00000017,0.00000007,0.00000060,0.00000040,-0.00000010,0.00000011,0.0
 0000070,-0.00000003,0.00000003,0.00000046,0.00000043,0.00000066,0.0000
 0011,-0.00000064,0.00000004,0.00000008,0.00000046,0.00000045,-0.000000
 77,-0.00000017,0.00000019,0.00000046,-0.00000030,0.00000005,-0.0000005
 7,-0.00000044,0.00000006,-0.00000049,-0.00000025,-0.00000068,-0.000000
 39,-0.00000052,-0.00000070,-0.00000059,0.00000023,-0.00000067,-0.00000
 038,0.00000030,-0.00000047,-0.00000052,0.00000039,0.00000006,-0.000000
 10,-0.00000012,-0.00000041,0.00000009,-0.00000004,-0.00000016,0.000000
 24,-0.00000068,-0.00000019,-0.00000024,-0.00000045,-0.00000012,0.,0.00
 000115,0.00000135,0.00000011,-0.00000070,-0.00000021,-0.00000144,0.000
 00109,-0.00000151,-0.00000075\\\@
 The archive entry for this job was punched.


 The chemist is a guest at the physicist's table and
 frequently dines well.
                   -- Richard Bersohn
 Job cpu time:      15 days 12 hours 26 minutes 40.4 seconds.
 Elapsed time:       0 days 14 hours 29 minutes 26.2 seconds.
 File lengths (MBytes):  RWF=  12461 Int=      0 D2E=      0 Chk=    164 Scr=      1
 Normal termination of Gaussian 16 at Wed Dec  6 11:14:55 2023.
