 Entering Gaussian System, Link 0=g16
 Input=/home/exlonk/in_progress/3798.inp
 Output=/home/exlonk/in_progress/3798.log
 Initial command:
 /opt/gaussian/g16-c01/g16/l1.exe "/lustre/tmp/slurm/2183120/Gau-1262682.inp" -scrdir="/lustre/tmp/slurm/2183120/"
 Default CPUs for threads: 0-3,7-9,13-16,19-20,24-27,31-33,37-40,43-44
 Default is to use a total of  26 processors:
                               26 via shared-memory
                                1 via Linda
 Entering Link 1 = /opt/gaussian/g16-c01/g16/l1.exe PID=   1262683.
  
 Copyright (c) 1988-2019, Gaussian, Inc.  All Rights Reserved.
  
 This is part of the Gaussian(R) 16 program.  It is based on
 the Gaussian(R) 09 system (copyright 2009, Gaussian, Inc.),
 the Gaussian(R) 03 system (copyright 2003, Gaussian, Inc.),
 the Gaussian(R) 98 system (copyright 1998, Gaussian, Inc.),
 the Gaussian(R) 94 system (copyright 1995, Gaussian, Inc.),
 the Gaussian 92(TM) system (copyright 1992, Gaussian, Inc.),
 the Gaussian 90(TM) system (copyright 1990, Gaussian, Inc.),
 the Gaussian 88(TM) system (copyright 1988, Gaussian, Inc.),
 the Gaussian 86(TM) system (copyright 1986, Carnegie Mellon
 University), and the Gaussian 82(TM) system (copyright 1983,
 Carnegie Mellon University). Gaussian is a federally registered
 trademark of Gaussian, Inc.
  
 This software contains proprietary and confidential information,
 including trade secrets, belonging to Gaussian, Inc.
  
 This software is provided under written license and may be
 used, copied, transmitted, or stored only in accord with that
 written license.
  
 The following legend is applicable only to US Government
 contracts under FAR:
  
                    RESTRICTED RIGHTS LEGEND
  
 Use, reproduction and disclosure by the US Government is
 subject to restrictions as set forth in subparagraphs (a)
 and (c) of the Commercial Computer Software - Restricted
 Rights clause in FAR 52.227-19.
  
 Gaussian, Inc.
 340 Quinnipiac St., Bldg. 40, Wallingford CT 06492
  
  
 ---------------------------------------------------------------
 Warning -- This program may not be used in any manner that
 competes with the business of Gaussian, Inc. or will provide
 assistance to any competitor of Gaussian, Inc.  The licensee
 of this program is prohibited from giving any competitor of
 Gaussian, Inc. access to this program.  By using this program,
 the user acknowledges that Gaussian, Inc. is engaged in the
 business of creating and licensing software in the field of
 computational chemistry and represents and warrants to the
 licensee that it is not a competitor of Gaussian, Inc. and that
 it will not use this program in any manner prohibited above.
 ---------------------------------------------------------------
  

 Cite this work as:
 Gaussian 16, Revision C.01,
 M. J. Frisch, G. W. Trucks, H. B. Schlegel, G. E. Scuseria, 
 M. A. Robb, J. R. Cheeseman, G. Scalmani, V. Barone, 
 G. A. Petersson, H. Nakatsuji, X. Li, M. Caricato, A. V. Marenich, 
 J. Bloino, B. G. Janesko, R. Gomperts, B. Mennucci, H. P. Hratchian, 
 J. V. Ortiz, A. F. Izmaylov, J. L. Sonnenberg, D. Williams-Young, 
 F. Ding, F. Lipparini, F. Egidi, J. Goings, B. Peng, A. Petrone, 
 T. Henderson, D. Ranasinghe, V. G. Zakrzewski, J. Gao, N. Rega, 
 G. Zheng, W. Liang, M. Hada, M. Ehara, K. Toyota, R. Fukuda, 
 J. Hasegawa, M. Ishida, T. Nakajima, Y. Honda, O. Kitao, H. Nakai, 
 T. Vreven, K. Throssell, J. A. Montgomery, Jr., J. E. Peralta, 
 F. Ogliaro, M. J. Bearpark, J. J. Heyd, E. N. Brothers, K. N. Kudin, 
 V. N. Staroverov, T. A. Keith, R. Kobayashi, J. Normand, 
 K. Raghavachari, A. P. Rendell, J. C. Burant, S. S. Iyengar, 
 J. Tomasi, M. Cossi, J. M. Millam, M. Klene, C. Adamo, R. Cammi, 
 J. W. Ochterski, R. L. Martin, K. Morokuma, O. Farkas, 
 J. B. Foresman, and D. J. Fox, Gaussian, Inc., Wallingford CT, 2019.
 
 ******************************************
 Gaussian 16:  EM64L-G16RevC.01  3-Jul-2019
                 6-Dec-2023 
 ******************************************
 %nproc=26
 Will use up to   26 processors via shared memory.
 %mem=16GB
 %chk=/home/exlonk/in_progress/3798.chk
 ------------------------------
 #p MN15/6-311++G(d,p) opt freq
 ------------------------------
 1/18=20,19=15,26=3,38=1/1,3;
 2/9=110,12=2,17=6,18=5,40=1/2;
 3/5=4,6=6,7=1111,11=2,25=1,30=1,71=1,74=-73/1,2,3;
 4//1;
 5/5=2,38=5/2;
 6/7=2,8=2,9=2,10=2,28=1/1;
 7//1,2,3,16;
 1/18=20,19=15,26=3/3(2);
 2/9=110/2;
 99//99;
 2/9=110/2;
 3/5=4,6=6,7=1111,11=2,25=1,30=1,71=1,74=-73/1,2,3;
 4/5=5,16=3,69=1/1;
 5/5=2,38=5/2;
 7//1,2,3,16;
 1/18=20,19=15,26=3/3(-5);
 2/9=110/2;
 6/7=2,8=2,9=2,10=2,19=2,28=1/1;
 99/9=1/99;
 Leave Link    1 at Wed Dec  6 02:11:41 2023, MaxMem=  2147483648 cpu:               3.1 elap:               0.1
 (Enter /opt/gaussian/g16-c01/g16/l101.exe)
 ---------------
 name file: 3798
 ---------------
 Symbolic Z-matrix:
 Charge =  0 Multiplicity = 1
 C                    -4.4202   -4.01412   0.69404 
 C                    -3.56161  -3.86191  -0.58331 
 C                    -2.65704  -5.11487  -0.65661 
 C                    -4.48794  -3.86866  -1.81398 
 C                    -2.77381  -2.53931  -0.56401 
 C                    -1.43005  -2.45812  -0.93677 
 C                    -0.71823  -1.24945  -0.90905 
 C                    -1.36255  -0.07634  -0.46977 
 C                    -2.72241  -0.10181  -0.16336 
 C                    -3.41671  -1.33504  -0.21237 
 C                    -3.12844   1.23118   0.13646 
 C                    -4.38071   1.80731   0.46993 
 C                    -4.50738   3.17753   0.75871 
 C                    -5.86823   3.84187   1.05093 
 C                    -7.07513   2.88994   0.88445 
 C                    -5.89221   4.37149   2.49964 
 C                    -6.0885    5.02099   0.07234 
 C                    -3.33203   3.94197   0.76771 
 C                    -2.07878   3.39997   0.44511 
 C                    -1.99692   2.04467   0.07413 
 N                    -0.92136   1.24645  -0.33168 
 C                     0.41223   1.71094  -0.58331 
 C                     0.61935   2.94429  -1.22118 
 C                     1.90662   3.41997  -1.49826 
 C                     2.96835   2.59823  -1.13114 
 O                     4.28442   2.87475  -1.33521 
 C                     4.99308   1.8194   -0.85317 
 N                     6.33223   1.73653  -0.89892 
 C                     6.83932   0.60117  -0.39133 
 O                     8.16838   0.31297  -0.36225 
 C                     8.29949  -0.91868   0.19751 
 C                     9.50855  -1.58629   0.39486 
 C                     9.44604  -2.86097   0.98458 
 C                     10.70839  -3.66298   1.20979 
 F                     10.86153  -4.65186   0.28703 
 F                     11.84536  -2.91571   1.15504 
 F                     10.72442  -4.27856   2.42331 
 C                     8.19977  -3.41155   1.33657 
 C                     6.99952  -2.71313   1.12824 
 C                     7.05437  -1.43743   0.54012 
 C                     6.1054   -0.45187   0.15419 
 C                     4.71008  -0.31352   0.18487 
 C                     4.13085   0.85041  -0.33861 
 C                     2.81507   1.35942  -0.51472 
 C                     1.51355   0.91132  -0.21593 
 H                    -5.20751  -3.25418   0.76676 
 H                    -4.92591  -4.98697   0.71552 
 H                    -3.80351  -3.9412    1.59824 
 H                    -1.94219  -5.13928   0.17548 
 H                    -3.25418  -6.03564  -0.6092 
 H                    -2.09094  -5.15721  -1.59508 
 H                    -3.9127   -3.79568  -2.74588 
 H                    -5.19443  -3.02876  -1.79948 
 H                    -5.07714  -4.79111  -1.85726 
 H                    -0.8832   -3.33664  -1.27384 
 H                     0.31224  -1.24444  -1.24891 
 H                    -4.47614  -1.32866   0.02884 
 H                    -5.24299   1.14711   0.48307 
 H                    -8.02088   3.41821   1.06695 
 H                    -7.12268   2.4729   -0.12917 
 H                    -7.03021   2.05688   1.59461 
 H                    -6.82707   4.90763   2.70537 
 H                    -5.81515   3.55153   3.22378 
 H                    -5.07051   5.06782   2.70575 
 H                    -7.07815   5.4728    0.21311 
 H                    -5.35197   5.82084   0.20889 
 H                    -6.02035   4.68313  -0.97092 
 H                    -3.36815   4.99833   1.02876 
 H                    -1.20013   4.03706   0.48828 
 H                    -0.2267    3.55756  -1.54738 
 H                     2.07476   4.36949  -1.99335 
 H                     10.44899  -1.12472   0.10541 
 H                     8.15561  -4.40745   1.78022 
 H                     6.05119  -3.15958   1.41085 
 H                     4.08843  -1.10384   0.59607 
 H                     1.3854   -0.01655   0.3295 
 
 ITRead=  0  0  0  0  0  0  0  0  0  0  0  0  0  0  0  0  0  0  0  0
 ITRead=  0  0  0  0  0  0  0  0  0  0  0  0  0  0  0  0  0  0  0  0
 ITRead=  0  0  0  0  0  0  0  0  0  0  0  0  0  0  0  0  0  0  0  0
 ITRead=  0  0  0  0  0  0  0  0  0  0  0  0  0  0  0  0
 MicOpt= -1 -1 -1 -1 -1 -1 -1 -1 -1 -1 -1 -1 -1 -1 -1 -1 -1 -1 -1 -1
 MicOpt= -1 -1 -1 -1 -1 -1 -1 -1 -1 -1 -1 -1 -1 -1 -1 -1 -1 -1 -1 -1
 MicOpt= -1 -1 -1 -1 -1 -1 -1 -1 -1 -1 -1 -1 -1 -1 -1 -1 -1 -1 -1 -1
 MicOpt= -1 -1 -1 -1 -1 -1 -1 -1 -1 -1 -1 -1 -1 -1 -1 -1
 NAtoms=     76 NQM=       76 NQMF=       0 NMMI=      0 NMMIF=      0
                NMic=       0 NMicF=      0.
                    Isotopes and Nuclear Properties:
 (Nuclear quadrupole moments (NQMom) in fm**2, nuclear magnetic moments (NMagM)
  in nuclear magnetons)

  Atom         1           2           3           4           5           6           7           8           9          10
 IAtWgt=          12          12          12          12          12          12          12          12          12          12
 AtmWgt=  12.0000000  12.0000000  12.0000000  12.0000000  12.0000000  12.0000000  12.0000000  12.0000000  12.0000000  12.0000000
 NucSpn=           0           0           0           0           0           0           0           0           0           0
 AtZEff=  -0.0000000  -0.0000000  -0.0000000  -0.0000000  -0.0000000  -0.0000000  -0.0000000  -0.0000000  -0.0000000  -0.0000000
 NQMom=    0.0000000   0.0000000   0.0000000   0.0000000   0.0000000   0.0000000   0.0000000   0.0000000   0.0000000   0.0000000
 NMagM=    0.0000000   0.0000000   0.0000000   0.0000000   0.0000000   0.0000000   0.0000000   0.0000000   0.0000000   0.0000000
 AtZNuc=   6.0000000   6.0000000   6.0000000   6.0000000   6.0000000   6.0000000   6.0000000   6.0000000   6.0000000   6.0000000

  Atom        11          12          13          14          15          16          17          18          19          20
 IAtWgt=          12          12          12          12          12          12          12          12          12          12
 AtmWgt=  12.0000000  12.0000000  12.0000000  12.0000000  12.0000000  12.0000000  12.0000000  12.0000000  12.0000000  12.0000000
 NucSpn=           0           0           0           0           0           0           0           0           0           0
 AtZEff=  -0.0000000  -0.0000000  -0.0000000  -0.0000000  -0.0000000  -0.0000000  -0.0000000  -0.0000000  -0.0000000  -0.0000000
 NQMom=    0.0000000   0.0000000   0.0000000   0.0000000   0.0000000   0.0000000   0.0000000   0.0000000   0.0000000   0.0000000
 NMagM=    0.0000000   0.0000000   0.0000000   0.0000000   0.0000000   0.0000000   0.0000000   0.0000000   0.0000000   0.0000000
 AtZNuc=   6.0000000   6.0000000   6.0000000   6.0000000   6.0000000   6.0000000   6.0000000   6.0000000   6.0000000   6.0000000

  Atom        21          22          23          24          25          26          27          28          29          30
 IAtWgt=          14          12          12          12          12          16          12          14          12          16
 AtmWgt=  14.0030740  12.0000000  12.0000000  12.0000000  12.0000000  15.9949146  12.0000000  14.0030740  12.0000000  15.9949146
 NucSpn=           2           0           0           0           0           0           0           2           0           0
 AtZEff=  -0.0000000  -0.0000000  -0.0000000  -0.0000000  -0.0000000  -0.0000000  -0.0000000  -0.0000000  -0.0000000  -0.0000000
 NQMom=    2.0440000   0.0000000   0.0000000   0.0000000   0.0000000   0.0000000   0.0000000   2.0440000   0.0000000   0.0000000
 NMagM=    0.4037610   0.0000000   0.0000000   0.0000000   0.0000000   0.0000000   0.0000000   0.4037610   0.0000000   0.0000000
 AtZNuc=   7.0000000   6.0000000   6.0000000   6.0000000   6.0000000   8.0000000   6.0000000   7.0000000   6.0000000   8.0000000

  Atom        31          32          33          34          35          36          37          38          39          40
 IAtWgt=          12          12          12          12          19          19          19          12          12          12
 AtmWgt=  12.0000000  12.0000000  12.0000000  12.0000000  18.9984033  18.9984033  18.9984033  12.0000000  12.0000000  12.0000000
 NucSpn=           0           0           0           0           1           1           1           0           0           0
 AtZEff=  -0.0000000  -0.0000000  -0.0000000  -0.0000000  -0.0000000  -0.0000000  -0.0000000  -0.0000000  -0.0000000  -0.0000000
 NQMom=    0.0000000   0.0000000   0.0000000   0.0000000   0.0000000   0.0000000   0.0000000   0.0000000   0.0000000   0.0000000
 NMagM=    0.0000000   0.0000000   0.0000000   0.0000000   2.6288670   2.6288670   2.6288670   0.0000000   0.0000000   0.0000000
 AtZNuc=   6.0000000   6.0000000   6.0000000   6.0000000   9.0000000   9.0000000   9.0000000   6.0000000   6.0000000   6.0000000

  Atom        41          42          43          44          45          46          47          48          49          50
 IAtWgt=          12          12          12          12          12           1           1           1           1           1
 AtmWgt=  12.0000000  12.0000000  12.0000000  12.0000000  12.0000000   1.0078250   1.0078250   1.0078250   1.0078250   1.0078250
 NucSpn=           0           0           0           0           0           1           1           1           1           1
 AtZEff=  -0.0000000  -0.0000000  -0.0000000  -0.0000000  -0.0000000  -0.0000000  -0.0000000  -0.0000000  -0.0000000  -0.0000000
 NQMom=    0.0000000   0.0000000   0.0000000   0.0000000   0.0000000   0.0000000   0.0000000   0.0000000   0.0000000   0.0000000
 NMagM=    0.0000000   0.0000000   0.0000000   0.0000000   0.0000000   2.7928460   2.7928460   2.7928460   2.7928460   2.7928460
 AtZNuc=   6.0000000   6.0000000   6.0000000   6.0000000   6.0000000   1.0000000   1.0000000   1.0000000   1.0000000   1.0000000

  Atom        51          52          53          54          55          56          57          58          59          60
 IAtWgt=           1           1           1           1           1           1           1           1           1           1
 AtmWgt=   1.0078250   1.0078250   1.0078250   1.0078250   1.0078250   1.0078250   1.0078250   1.0078250   1.0078250   1.0078250
 NucSpn=           1           1           1           1           1           1           1           1           1           1
 AtZEff=  -0.0000000  -0.0000000  -0.0000000  -0.0000000  -0.0000000  -0.0000000  -0.0000000  -0.0000000  -0.0000000  -0.0000000
 NQMom=    0.0000000   0.0000000   0.0000000   0.0000000   0.0000000   0.0000000   0.0000000   0.0000000   0.0000000   0.0000000
 NMagM=    2.7928460   2.7928460   2.7928460   2.7928460   2.7928460   2.7928460   2.7928460   2.7928460   2.7928460   2.7928460
 AtZNuc=   1.0000000   1.0000000   1.0000000   1.0000000   1.0000000   1.0000000   1.0000000   1.0000000   1.0000000   1.0000000

  Atom        61          62          63          64          65          66          67          68          69          70
 IAtWgt=           1           1           1           1           1           1           1           1           1           1
 AtmWgt=   1.0078250   1.0078250   1.0078250   1.0078250   1.0078250   1.0078250   1.0078250   1.0078250   1.0078250   1.0078250
 NucSpn=           1           1           1           1           1           1           1           1           1           1
 AtZEff=  -0.0000000  -0.0000000  -0.0000000  -0.0000000  -0.0000000  -0.0000000  -0.0000000  -0.0000000  -0.0000000  -0.0000000
 NQMom=    0.0000000   0.0000000   0.0000000   0.0000000   0.0000000   0.0000000   0.0000000   0.0000000   0.0000000   0.0000000
 NMagM=    2.7928460   2.7928460   2.7928460   2.7928460   2.7928460   2.7928460   2.7928460   2.7928460   2.7928460   2.7928460
 AtZNuc=   1.0000000   1.0000000   1.0000000   1.0000000   1.0000000   1.0000000   1.0000000   1.0000000   1.0000000   1.0000000

  Atom        71          72          73          74          75          76
 IAtWgt=           1           1           1           1           1           1
 AtmWgt=   1.0078250   1.0078250   1.0078250   1.0078250   1.0078250   1.0078250
 NucSpn=           1           1           1           1           1           1
 AtZEff=  -0.0000000  -0.0000000  -0.0000000  -0.0000000  -0.0000000  -0.0000000
 NQMom=    0.0000000   0.0000000   0.0000000   0.0000000   0.0000000   0.0000000
 NMagM=    2.7928460   2.7928460   2.7928460   2.7928460   2.7928460   2.7928460
 AtZNuc=   1.0000000   1.0000000   1.0000000   1.0000000   1.0000000   1.0000000
 Leave Link  101 at Wed Dec  6 02:11:41 2023, MaxMem=  2147483648 cpu:               8.4 elap:               0.4
 (Enter /opt/gaussian/g16-c01/g16/l103.exe)

 GradGradGradGradGradGradGradGradGradGradGradGradGradGradGradGradGradGrad
 Berny optimization.
 Initialization pass.
                           ----------------------------
                           !    Initial Parameters    !
                           ! (Angstroms and Degrees)  !
 --------------------------                            --------------------------
 ! Name  Definition              Value          Derivative Info.                !
 --------------------------------------------------------------------------------
 ! R1    R(1,2)                  1.5466         estimate D2E/DX2                !
 ! R2    R(1,46)                 1.0966         estimate D2E/DX2                !
 ! R3    R(1,47)                 1.0967         estimate D2E/DX2                !
 ! R4    R(1,48)                 1.0969         estimate D2E/DX2                !
 ! R5    R(2,3)                  1.5471         estimate D2E/DX2                !
 ! R6    R(2,4)                  1.5403         estimate D2E/DX2                !
 ! R7    R(2,5)                  1.5396         estimate D2E/DX2                !
 ! R8    R(3,49)                 1.0973         estimate D2E/DX2                !
 ! R9    R(3,50)                 1.0985         estimate D2E/DX2                !
 ! R10   R(3,51)                 1.0968         estimate D2E/DX2                !
 ! R11   R(4,52)                 1.0976         estimate D2E/DX2                !
 ! R12   R(4,53)                 1.0976         estimate D2E/DX2                !
 ! R13   R(4,54)                 1.0954         estimate D2E/DX2                !
 ! R14   R(5,6)                  1.3969         estimate D2E/DX2                !
 ! R15   R(5,10)                 1.4097         estimate D2E/DX2                !
 ! R16   R(6,7)                  1.403          estimate D2E/DX2                !
 ! R17   R(6,55)                 1.0883         estimate D2E/DX2                !
 ! R18   R(7,8)                  1.4087         estimate D2E/DX2                !
 ! R19   R(7,56)                 1.0851         estimate D2E/DX2                !
 ! R20   R(8,9)                  1.3942         estimate D2E/DX2                !
 ! R21   R(8,21)                 1.4012         estimate D2E/DX2                !
 ! R22   R(9,10)                 1.4161         estimate D2E/DX2                !
 ! R23   R(9,11)                 1.4253         estimate D2E/DX2                !
 ! R24   R(10,57)                1.0866         estimate D2E/DX2                !
 ! R25   R(11,12)                1.4182         estimate D2E/DX2                !
 ! R26   R(11,20)                1.395          estimate D2E/DX2                !
 ! R27   R(12,13)                1.406          estimate D2E/DX2                !
 ! R28   R(12,58)                1.0861         estimate D2E/DX2                !
 ! R29   R(13,14)                1.5423         estimate D2E/DX2                !
 ! R30   R(13,18)                1.4021         estimate D2E/DX2                !
 ! R31   R(14,15)                1.5461         estimate D2E/DX2                !
 ! R32   R(14,16)                1.5427         estimate D2E/DX2                !
 ! R33   R(14,17)                1.5481         estimate D2E/DX2                !
 ! R34   R(15,59)                1.0986         estimate D2E/DX2                !
 ! R35   R(15,60)                1.0971         estimate D2E/DX2                !
 ! R36   R(15,61)                1.0956         estimate D2E/DX2                !
 ! R37   R(16,62)                1.0971         estimate D2E/DX2                !
 ! R38   R(16,63)                1.0967         estimate D2E/DX2                !
 ! R39   R(16,64)                1.0966         estimate D2E/DX2                !
 ! R40   R(17,65)                1.097          estimate D2E/DX2                !
 ! R41   R(17,66)                1.0959         estimate D2E/DX2                !
 ! R42   R(17,67)                1.0987         estimate D2E/DX2                !
 ! R43   R(18,19)                1.403          estimate D2E/DX2                !
 ! R44   R(18,68)                1.0887         estimate D2E/DX2                !
 ! R45   R(19,20)                1.4075         estimate D2E/DX2                !
 ! R46   R(19,69)                1.0862         estimate D2E/DX2                !
 ! R47   R(20,21)                1.3995         estimate D2E/DX2                !
 ! R48   R(21,22)                1.4344         estimate D2E/DX2                !
 ! R49   R(22,23)                1.4039         estimate D2E/DX2                !
 ! R50   R(22,45)                1.4097         estimate D2E/DX2                !
 ! R51   R(23,24)                1.4            estimate D2E/DX2                !
 ! R52   R(23,70)                1.0947         estimate D2E/DX2                !
 ! R53   R(24,25)                1.3919         estimate D2E/DX2                !
 ! R54   R(24,71)                1.084          estimate D2E/DX2                !
 ! R55   R(25,26)                1.3602         estimate D2E/DX2                !
 ! R56   R(25,44)                1.3922         estimate D2E/DX2                !
 ! R57   R(26,27)                1.3595         estimate D2E/DX2                !
 ! R58   R(27,28)                1.3425         estimate D2E/DX2                !
 ! R59   R(27,43)                1.3954         estimate D2E/DX2                !
 ! R60   R(28,29)                1.3431         estimate D2E/DX2                !
 ! R61   R(29,30)                1.3603         estimate D2E/DX2                !
 ! R62   R(29,41)                1.3947         estimate D2E/DX2                !
 ! R63   R(30,31)                1.3592         estimate D2E/DX2                !
 ! R64   R(31,32)                1.3952         estimate D2E/DX2                !
 ! R65   R(31,40)                1.3917         estimate D2E/DX2                !
 ! R66   R(32,33)                1.4059         estimate D2E/DX2                !
 ! R67   R(32,72)                1.0869         estimate D2E/DX2                !
 ! R68   R(33,34)                1.5124         estimate D2E/DX2                !
 ! R69   R(33,38)                1.4072         estimate D2E/DX2                !
 ! R70   R(34,35)                1.3612         estimate D2E/DX2                !
 ! R71   R(34,36)                1.3617         estimate D2E/DX2                !
 ! R72   R(34,37)                1.3608         estimate D2E/DX2                !
 ! R73   R(38,39)                1.4042         estimate D2E/DX2                !
 ! R74   R(38,73)                1.0911         estimate D2E/DX2                !
 ! R75   R(39,40)                1.4058         estimate D2E/DX2                !
 ! R76   R(39,74)                1.0856         estimate D2E/DX2                !
 ! R77   R(40,41)                1.4216         estimate D2E/DX2                !
 ! R78   R(41,42)                1.4025         estimate D2E/DX2                !
 ! R79   R(42,43)                1.4015         estimate D2E/DX2                !
 ! R80   R(42,75)                1.0863         estimate D2E/DX2                !
 ! R81   R(43,44)                1.4217         estimate D2E/DX2                !
 ! R82   R(44,45)                1.4086         estimate D2E/DX2                !
 ! R83   R(45,76)                1.0839         estimate D2E/DX2                !
 ! A1    A(2,1,46)             112.651          estimate D2E/DX2                !
 ! A2    A(2,1,47)             111.0678         estimate D2E/DX2                !
 ! A3    A(2,1,48)             111.2332         estimate D2E/DX2                !
 ! A4    A(46,1,47)            106.4019         estimate D2E/DX2                !
 ! A5    A(46,1,48)            107.6321         estimate D2E/DX2                !
 ! A6    A(47,1,48)            107.5829         estimate D2E/DX2                !
 ! A7    A(1,2,3)              106.5            estimate D2E/DX2                !
 ! A8    A(1,2,4)              109.0009         estimate D2E/DX2                !
 ! A9    A(1,2,5)              110.9933         estimate D2E/DX2                !
 ! A10   A(3,2,4)              108.0721         estimate D2E/DX2                !
 ! A11   A(3,2,5)              113.4002         estimate D2E/DX2                !
 ! A12   A(4,2,5)              108.7539         estimate D2E/DX2                !
 ! A13   A(2,3,49)             111.2847         estimate D2E/DX2                !
 ! A14   A(2,3,50)             111.0372         estimate D2E/DX2                !
 ! A15   A(2,3,51)             111.9366         estimate D2E/DX2                !
 ! A16   A(49,3,50)            107.6245         estimate D2E/DX2                !
 ! A17   A(49,3,51)            108.1642         estimate D2E/DX2                !
 ! A18   A(50,3,51)            106.5678         estimate D2E/DX2                !
 ! A19   A(2,4,52)             111.2778         estimate D2E/DX2                !
 ! A20   A(2,4,53)             111.9109         estimate D2E/DX2                !
 ! A21   A(2,4,54)             111.0219         estimate D2E/DX2                !
 ! A22   A(52,4,53)            107.3182         estimate D2E/DX2                !
 ! A23   A(52,4,54)            107.7187         estimate D2E/DX2                !
 ! A24   A(53,4,54)            107.379          estimate D2E/DX2                !
 ! A25   A(2,5,6)              122.6043         estimate D2E/DX2                !
 ! A26   A(2,5,10)             120.2419         estimate D2E/DX2                !
 ! A27   A(6,5,10)             117.1053         estimate D2E/DX2                !
 ! A28   A(5,6,7)              122.2001         estimate D2E/DX2                !
 ! A29   A(5,6,55)             121.2714         estimate D2E/DX2                !
 ! A30   A(7,6,55)             116.5264         estimate D2E/DX2                !
 ! A31   A(6,7,8)              119.4417         estimate D2E/DX2                !
 ! A32   A(6,7,56)             118.6601         estimate D2E/DX2                !
 ! A33   A(8,7,56)             121.8854         estimate D2E/DX2                !
 ! A34   A(7,8,9)              119.9646         estimate D2E/DX2                !
 ! A35   A(7,8,21)             132.2888         estimate D2E/DX2                !
 ! A36   A(9,8,21)             107.6197         estimate D2E/DX2                !
 ! A37   A(8,9,10)             119.1124         estimate D2E/DX2                !
 ! A38   A(8,9,11)             107.8778         estimate D2E/DX2                !
 ! A39   A(10,9,11)            133.0048         estimate D2E/DX2                !
 ! A40   A(5,10,9)             121.938          estimate D2E/DX2                !
 ! A41   A(5,10,57)            120.3352         estimate D2E/DX2                !
 ! A42   A(9,10,57)            117.7265         estimate D2E/DX2                !
 ! A43   A(9,11,12)            132.9144         estimate D2E/DX2                !
 ! A44   A(9,11,20)            107.7529         estimate D2E/DX2                !
 ! A45   A(12,11,20)           119.3296         estimate D2E/DX2                !
 ! A46   A(11,12,13)           121.5831         estimate D2E/DX2                !
 ! A47   A(11,12,58)           117.1909         estimate D2E/DX2                !
 ! A48   A(13,12,58)           121.223          estimate D2E/DX2                !
 ! A49   A(12,13,14)           122.5601         estimate D2E/DX2                !
 ! A50   A(12,13,18)           117.2011         estimate D2E/DX2                !
 ! A51   A(14,13,18)           120.2382         estimate D2E/DX2                !
 ! A52   A(13,14,15)           113.7758         estimate D2E/DX2                !
 ! A53   A(13,14,16)           109.8478         estimate D2E/DX2                !
 ! A54   A(13,14,17)           109.5042         estimate D2E/DX2                !
 ! A55   A(15,14,16)           107.4791         estimate D2E/DX2                !
 ! A56   A(15,14,17)           106.8472         estimate D2E/DX2                !
 ! A57   A(16,14,17)           109.2645         estimate D2E/DX2                !
 ! A58   A(14,15,59)           110.9811         estimate D2E/DX2                !
 ! A59   A(14,15,60)           111.5529         estimate D2E/DX2                !
 ! A60   A(14,15,61)           111.4908         estimate D2E/DX2                !
 ! A61   A(59,15,60)           107.3962         estimate D2E/DX2                !
 ! A62   A(59,15,61)           107.053          estimate D2E/DX2                !
 ! A63   A(60,15,61)           108.1564         estimate D2E/DX2                !
 ! A64   A(14,16,62)           110.9222         estimate D2E/DX2                !
 ! A65   A(14,16,63)           111.2425         estimate D2E/DX2                !
 ! A66   A(14,16,64)           112.5104         estimate D2E/DX2                !
 ! A67   A(62,16,63)           107.5434         estimate D2E/DX2                !
 ! A68   A(62,16,64)           107.0339         estimate D2E/DX2                !
 ! A69   A(63,16,64)           107.3384         estimate D2E/DX2                !
 ! A70   A(14,17,65)           111.1593         estimate D2E/DX2                !
 ! A71   A(14,17,66)           112.429          estimate D2E/DX2                !
 ! A72   A(14,17,67)           110.9271         estimate D2E/DX2                !
 ! A73   A(65,17,66)           106.8428         estimate D2E/DX2                !
 ! A74   A(65,17,67)           107.7259         estimate D2E/DX2                !
 ! A75   A(66,17,67)           107.5218         estimate D2E/DX2                !
 ! A76   A(13,18,19)           122.4591         estimate D2E/DX2                !
 ! A77   A(13,18,68)           120.1801         estimate D2E/DX2                !
 ! A78   A(19,18,68)           117.3606         estimate D2E/DX2                !
 ! A79   A(18,19,20)           118.981          estimate D2E/DX2                !
 ! A80   A(18,19,69)           119.1345         estimate D2E/DX2                !
 ! A81   A(20,19,69)           121.8845         estimate D2E/DX2                !
 ! A82   A(11,20,19)           120.1699         estimate D2E/DX2                !
 ! A83   A(11,20,21)           107.6812         estimate D2E/DX2                !
 ! A84   A(19,20,21)           132.0904         estimate D2E/DX2                !
 ! A85   A(8,21,20)            108.9665         estimate D2E/DX2                !
 ! A86   A(8,21,22)            125.5303         estimate D2E/DX2                !
 ! A87   A(20,21,22)           125.498          estimate D2E/DX2                !
 ! A88   A(21,22,23)           120.0894         estimate D2E/DX2                !
 ! A89   A(21,22,45)           119.7976         estimate D2E/DX2                !
 ! A90   A(23,22,45)           120.097          estimate D2E/DX2                !
 ! A91   A(22,23,24)           121.6051         estimate D2E/DX2                !
 ! A92   A(22,23,70)           120.9001         estimate D2E/DX2                !
 ! A93   A(24,23,70)           117.4711         estimate D2E/DX2                !
 ! A94   A(23,24,25)           116.6522         estimate D2E/DX2                !
 ! A95   A(23,24,71)           122.0491         estimate D2E/DX2                !
 ! A96   A(25,24,71)           121.2853         estimate D2E/DX2                !
 ! A97   A(24,25,26)           125.3427         estimate D2E/DX2                !
 ! A98   A(24,25,44)           123.9281         estimate D2E/DX2                !
 ! A99   A(26,25,44)           110.7236         estimate D2E/DX2                !
 ! A100  A(25,26,27)           107.0578         estimate D2E/DX2                !
 ! A101  A(26,27,28)           123.765          estimate D2E/DX2                !
 ! A102  A(26,27,43)           110.3471         estimate D2E/DX2                !
 ! A103  A(28,27,43)           125.8788         estimate D2E/DX2                !
 ! A104  A(27,28,29)           114.5774         estimate D2E/DX2                !
 ! A105  A(28,29,30)           123.7854         estimate D2E/DX2                !
 ! A106  A(28,29,41)           125.9738         estimate D2E/DX2                !
 ! A107  A(30,29,41)           110.2324         estimate D2E/DX2                !
 ! A108  A(29,30,31)           107.1595         estimate D2E/DX2                !
 ! A109  A(30,31,32)           125.1312         estimate D2E/DX2                !
 ! A110  A(30,31,40)           110.6614         estimate D2E/DX2                !
 ! A111  A(32,31,40)           124.2048         estimate D2E/DX2                !
 ! A112  A(31,32,33)           117.0433         estimate D2E/DX2                !
 ! A113  A(31,32,72)           120.5952         estimate D2E/DX2                !
 ! A114  A(33,32,72)           122.3604         estimate D2E/DX2                !
 ! A115  A(32,33,34)           120.4071         estimate D2E/DX2                !
 ! A116  A(32,33,38)           119.9372         estimate D2E/DX2                !
 ! A117  A(34,33,38)           119.6347         estimate D2E/DX2                !
 ! A118  A(33,34,35)           112.2224         estimate D2E/DX2                !
 ! A119  A(33,34,36)           113.5731         estimate D2E/DX2                !
 ! A120  A(33,34,37)           112.4881         estimate D2E/DX2                !
 ! A121  A(35,34,36)           106.1109         estimate D2E/DX2                !
 ! A122  A(35,34,37)           105.9364         estimate D2E/DX2                !
 ! A123  A(36,34,37)           105.9185         estimate D2E/DX2                !
 ! A124  A(33,38,39)           121.6877         estimate D2E/DX2                !
 ! A125  A(33,38,73)           119.647          estimate D2E/DX2                !
 ! A126  A(39,38,73)           118.665          estimate D2E/DX2                !
 ! A127  A(38,39,40)           118.6894         estimate D2E/DX2                !
 ! A128  A(38,39,74)           120.2324         estimate D2E/DX2                !
 ! A129  A(40,39,74)           121.0763         estimate D2E/DX2                !
 ! A130  A(31,40,39)           118.4337         estimate D2E/DX2                !
 ! A131  A(31,40,41)           105.783          estimate D2E/DX2                !
 ! A132  A(39,40,41)           135.7796         estimate D2E/DX2                !
 ! A133  A(29,41,40)           106.1628         estimate D2E/DX2                !
 ! A134  A(29,41,42)           117.2333         estimate D2E/DX2                !
 ! A135  A(40,41,42)           136.6014         estimate D2E/DX2                !
 ! A136  A(41,42,43)           119.0072         estimate D2E/DX2                !
 ! A137  A(41,42,75)           120.3867         estimate D2E/DX2                !
 ! A138  A(43,42,75)           120.6007         estimate D2E/DX2                !
 ! A139  A(27,43,42)           117.326          estimate D2E/DX2                !
 ! A140  A(27,43,44)           106.115          estimate D2E/DX2                !
 ! A141  A(42,43,44)           136.5576         estimate D2E/DX2                !
 ! A142  A(25,44,43)           105.7551         estimate D2E/DX2                !
 ! A143  A(25,44,45)           118.6034         estimate D2E/DX2                !
 ! A144  A(43,44,45)           135.6408         estimate D2E/DX2                !
 ! A145  A(22,45,44)           119.0876         estimate D2E/DX2                !
 ! A146  A(22,45,76)           121.6237         estimate D2E/DX2                !
 ! A147  A(44,45,76)           119.2303         estimate D2E/DX2                !
 ! D1    D(46,1,2,3)          -171.3209         estimate D2E/DX2                !
 ! D2    D(46,1,2,4)           -54.95           estimate D2E/DX2                !
 ! D3    D(46,1,2,5)            64.8082         estimate D2E/DX2                !
 ! D4    D(47,1,2,3)           -52.0693         estimate D2E/DX2                !
 ! D5    D(47,1,2,4)            64.3016         estimate D2E/DX2                !
 ! D6    D(47,1,2,5)          -175.9402         estimate D2E/DX2                !
 ! D7    D(48,1,2,3)            67.7308         estimate D2E/DX2                !
 ! D8    D(48,1,2,4)          -175.8983         estimate D2E/DX2                !
 ! D9    D(48,1,2,5)           -56.1401         estimate D2E/DX2                !
 ! D10   D(1,2,3,49)           -65.5396         estimate D2E/DX2                !
 ! D11   D(1,2,3,50)            54.327          estimate D2E/DX2                !
 ! D12   D(1,2,3,51)           173.2908         estimate D2E/DX2                !
 ! D13   D(4,2,3,49)           177.4698         estimate D2E/DX2                !
 ! D14   D(4,2,3,50)           -62.6637         estimate D2E/DX2                !
 ! D15   D(4,2,3,51)            56.3001         estimate D2E/DX2                !
 ! D16   D(5,2,3,49)            56.8257         estimate D2E/DX2                !
 ! D17   D(5,2,3,50)           176.6922         estimate D2E/DX2                !
 ! D18   D(5,2,3,51)           -64.344          estimate D2E/DX2                !
 ! D19   D(1,2,4,52)          -178.1286         estimate D2E/DX2                !
 ! D20   D(1,2,4,53)            61.8075         estimate D2E/DX2                !
 ! D21   D(1,2,4,54)           -58.1579         estimate D2E/DX2                !
 ! D22   D(3,2,4,52)           -62.7668         estimate D2E/DX2                !
 ! D23   D(3,2,4,53)           177.1694         estimate D2E/DX2                !
 ! D24   D(3,2,4,54)            57.204          estimate D2E/DX2                !
 ! D25   D(5,2,4,52)            60.7359         estimate D2E/DX2                !
 ! D26   D(5,2,4,53)           -59.328          estimate D2E/DX2                !
 ! D27   D(5,2,4,54)          -179.2933         estimate D2E/DX2                !
 ! D28   D(1,2,5,6)            136.1426         estimate D2E/DX2                !
 ! D29   D(1,2,5,10)           -46.4646         estimate D2E/DX2                !
 ! D30   D(3,2,5,6)             16.3062         estimate D2E/DX2                !
 ! D31   D(3,2,5,10)          -166.3011         estimate D2E/DX2                !
 ! D32   D(4,2,5,6)           -103.9519         estimate D2E/DX2                !
 ! D33   D(4,2,5,10)            73.4409         estimate D2E/DX2                !
 ! D34   D(2,5,6,7)           -179.6466         estimate D2E/DX2                !
 ! D35   D(2,5,6,55)             0.893          estimate D2E/DX2                !
 ! D36   D(10,5,6,7)             2.8836         estimate D2E/DX2                !
 ! D37   D(10,5,6,55)         -176.5767         estimate D2E/DX2                !
 ! D38   D(2,5,10,9)           179.0333         estimate D2E/DX2                !
 ! D39   D(2,5,10,57)           -1.1731         estimate D2E/DX2                !
 ! D40   D(6,5,10,9)            -3.434          estimate D2E/DX2                !
 ! D41   D(6,5,10,57)          176.3597         estimate D2E/DX2                !
 ! D42   D(5,6,7,8)              1.1653         estimate D2E/DX2                !
 ! D43   D(5,6,7,56)          -177.558          estimate D2E/DX2                !
 ! D44   D(55,6,7,8)          -179.3503         estimate D2E/DX2                !
 ! D45   D(55,6,7,56)            1.9264         estimate D2E/DX2                !
 ! D46   D(6,7,8,9)             -4.8259         estimate D2E/DX2                !
 ! D47   D(6,7,8,21)           179.8234         estimate D2E/DX2                !
 ! D48   D(56,7,8,9)           173.8547         estimate D2E/DX2                !
 ! D49   D(56,7,8,21)           -1.4959         estimate D2E/DX2                !
 ! D50   D(7,8,9,10)             4.2742         estimate D2E/DX2                !
 ! D51   D(7,8,9,11)          -175.0189         estimate D2E/DX2                !
 ! D52   D(21,8,9,10)         -179.333          estimate D2E/DX2                !
 ! D53   D(21,8,9,11)            1.3739         estimate D2E/DX2                !
 ! D54   D(7,8,21,20)          176.4231         estimate D2E/DX2                !
 ! D55   D(7,8,21,22)           -2.7861         estimate D2E/DX2                !
 ! D56   D(9,8,21,20)            0.6485         estimate D2E/DX2                !
 ! D57   D(9,8,21,22)         -178.5607         estimate D2E/DX2                !
 ! D58   D(8,9,10,5)            -0.0914         estimate D2E/DX2                !
 ! D59   D(8,9,10,57)         -179.8902         estimate D2E/DX2                !
 ! D60   D(11,9,10,5)          178.9886         estimate D2E/DX2                !
 ! D61   D(11,9,10,57)          -0.8102         estimate D2E/DX2                !
 ! D62   D(8,9,11,12)          177.7728         estimate D2E/DX2                !
 ! D63   D(8,9,11,20)           -2.8906         estimate D2E/DX2                !
 ! D64   D(10,9,11,12)          -1.3827         estimate D2E/DX2                !
 ! D65   D(10,9,11,20)         177.9539         estimate D2E/DX2                !
 ! D66   D(9,11,12,13)         178.3469         estimate D2E/DX2                !
 ! D67   D(9,11,12,58)          -2.2842         estimate D2E/DX2                !
 ! D68   D(20,11,12,13)         -0.9284         estimate D2E/DX2                !
 ! D69   D(20,11,12,58)        178.4405         estimate D2E/DX2                !
 ! D70   D(9,11,20,19)        -174.2757         estimate D2E/DX2                !
 ! D71   D(9,11,20,21)           3.2656         estimate D2E/DX2                !
 ! D72   D(12,11,20,19)          5.1671         estimate D2E/DX2                !
 ! D73   D(12,11,20,21)       -177.2916         estimate D2E/DX2                !
 ! D74   D(11,12,13,14)        176.6898         estimate D2E/DX2                !
 ! D75   D(11,12,13,18)         -3.0337         estimate D2E/DX2                !
 ! D76   D(58,12,13,14)         -2.6539         estimate D2E/DX2                !
 ! D77   D(58,12,13,18)        177.6227         estimate D2E/DX2                !
 ! D78   D(12,13,14,15)         -4.641          estimate D2E/DX2                !
 ! D79   D(12,13,14,16)        115.8873         estimate D2E/DX2                !
 ! D80   D(12,13,14,17)       -124.1144         estimate D2E/DX2                !
 ! D81   D(18,13,14,15)        175.0743         estimate D2E/DX2                !
 ! D82   D(18,13,14,16)        -64.3974         estimate D2E/DX2                !
 ! D83   D(18,13,14,17)         55.6009         estimate D2E/DX2                !
 ! D84   D(12,13,18,19)          2.8988         estimate D2E/DX2                !
 ! D85   D(12,13,18,68)       -177.2764         estimate D2E/DX2                !
 ! D86   D(14,13,18,19)       -176.8315         estimate D2E/DX2                !
 ! D87   D(14,13,18,68)          2.9934         estimate D2E/DX2                !
 ! D88   D(13,14,15,59)       -177.9079         estimate D2E/DX2                !
 ! D89   D(13,14,15,60)        -58.1888         estimate D2E/DX2                !
 ! D90   D(13,14,15,61)         62.8477         estimate D2E/DX2                !
 ! D91   D(16,14,15,59)         60.242          estimate D2E/DX2                !
 ! D92   D(16,14,15,60)        179.9611         estimate D2E/DX2                !
 ! D93   D(16,14,15,61)        -59.0024         estimate D2E/DX2                !
 ! D94   D(17,14,15,59)        -56.9369         estimate D2E/DX2                !
 ! D95   D(17,14,15,60)         62.7823         estimate D2E/DX2                !
 ! D96   D(17,14,15,61)       -176.1813         estimate D2E/DX2                !
 ! D97   D(13,14,16,62)        176.1706         estimate D2E/DX2                !
 ! D98   D(13,14,16,63)        -64.1699         estimate D2E/DX2                !
 ! D99   D(13,14,16,64)         56.3082         estimate D2E/DX2                !
 ! D100  D(15,14,16,62)        -59.5634         estimate D2E/DX2                !
 ! D101  D(15,14,16,63)         60.0961         estimate D2E/DX2                !
 ! D102  D(15,14,16,64)       -179.4258         estimate D2E/DX2                !
 ! D103  D(17,14,16,62)         56.0267         estimate D2E/DX2                !
 ! D104  D(17,14,16,63)        175.6862         estimate D2E/DX2                !
 ! D105  D(17,14,16,64)        -63.8357         estimate D2E/DX2                !
 ! D106  D(13,14,17,65)        176.3061         estimate D2E/DX2                !
 ! D107  D(13,14,17,66)        -63.9659         estimate D2E/DX2                !
 ! D108  D(13,14,17,67)         56.4685         estimate D2E/DX2                !
 ! D109  D(15,14,17,65)         52.6547         estimate D2E/DX2                !
 ! D110  D(15,14,17,66)        172.3827         estimate D2E/DX2                !
 ! D111  D(15,14,17,67)        -67.1829         estimate D2E/DX2                !
 ! D112  D(16,14,17,65)        -63.3393         estimate D2E/DX2                !
 ! D113  D(16,14,17,66)         56.3887         estimate D2E/DX2                !
 ! D114  D(16,14,17,67)        176.8231         estimate D2E/DX2                !
 ! D115  D(13,18,19,20)          1.1997         estimate D2E/DX2                !
 ! D116  D(13,18,19,69)       -178.817          estimate D2E/DX2                !
 ! D117  D(68,18,19,20)       -178.6298         estimate D2E/DX2                !
 ! D118  D(68,18,19,69)          1.3535         estimate D2E/DX2                !
 ! D119  D(18,19,20,11)         -5.3053         estimate D2E/DX2                !
 ! D120  D(18,19,20,21)        177.8521         estimate D2E/DX2                !
 ! D121  D(69,19,20,11)        174.712          estimate D2E/DX2                !
 ! D122  D(69,19,20,21)         -2.1307         estimate D2E/DX2                !
 ! D123  D(11,20,21,8)          -2.4549         estimate D2E/DX2                !
 ! D124  D(11,20,21,22)        176.7546         estimate D2E/DX2                !
 ! D125  D(19,20,21,8)         174.6803         estimate D2E/DX2                !
 ! D126  D(19,20,21,22)         -6.1101         estimate D2E/DX2                !
 ! D127  D(8,21,22,23)         140.0318         estimate D2E/DX2                !
 ! D128  D(8,21,22,45)         -38.5129         estimate D2E/DX2                !
 ! D129  D(20,21,22,23)        -39.0496         estimate D2E/DX2                !
 ! D130  D(20,21,22,45)        142.4057         estimate D2E/DX2                !
 ! D131  D(21,22,23,24)       -179.1412         estimate D2E/DX2                !
 ! D132  D(21,22,23,70)         -0.9566         estimate D2E/DX2                !
 ! D133  D(45,22,23,24)         -0.6009         estimate D2E/DX2                !
 ! D134  D(45,22,23,70)        177.5837         estimate D2E/DX2                !
 ! D135  D(21,22,45,44)        177.6656         estimate D2E/DX2                !
 ! D136  D(21,22,45,76)         -5.1368         estimate D2E/DX2                !
 ! D137  D(23,22,45,44)         -0.879          estimate D2E/DX2                !
 ! D138  D(23,22,45,76)        176.3186         estimate D2E/DX2                !
 ! D139  D(22,23,24,25)          1.1063         estimate D2E/DX2                !
 ! D140  D(22,23,24,71)        179.7899         estimate D2E/DX2                !
 ! D141  D(70,23,24,25)       -177.1381         estimate D2E/DX2                !
 ! D142  D(70,23,24,71)          1.5455         estimate D2E/DX2                !
 ! D143  D(23,24,25,26)        178.9004         estimate D2E/DX2                !
 ! D144  D(23,24,25,44)         -0.1524         estimate D2E/DX2                !
 ! D145  D(71,24,25,26)          0.2061         estimate D2E/DX2                !
 ! D146  D(71,24,25,44)       -178.8467         estimate D2E/DX2                !
 ! D147  D(24,25,26,27)       -179.1772         estimate D2E/DX2                !
 ! D148  D(44,25,26,27)         -0.0175         estimate D2E/DX2                !
 ! D149  D(24,25,44,43)        178.9613         estimate D2E/DX2                !
 ! D150  D(24,25,44,45)         -1.2912         estimate D2E/DX2                !
 ! D151  D(26,25,44,43)         -0.2126         estimate D2E/DX2                !
 ! D152  D(26,25,44,45)        179.5349         estimate D2E/DX2                !
 ! D153  D(25,26,27,28)        179.211          estimate D2E/DX2                !
 ! D154  D(25,26,27,43)          0.2511         estimate D2E/DX2                !
 ! D155  D(26,27,28,29)       -178.843          estimate D2E/DX2                !
 ! D156  D(43,27,28,29)         -0.0465         estimate D2E/DX2                !
 ! D157  D(26,27,43,42)        179.2653         estimate D2E/DX2                !
 ! D158  D(26,27,43,44)         -0.3791         estimate D2E/DX2                !
 ! D159  D(28,27,43,42)          0.3324         estimate D2E/DX2                !
 ! D160  D(28,27,43,44)       -179.312          estimate D2E/DX2                !
 ! D161  D(27,28,29,30)        178.929          estimate D2E/DX2                !
 ! D162  D(27,28,29,41)          0.0855         estimate D2E/DX2                !
 ! D163  D(28,29,30,31)       -178.9817         estimate D2E/DX2                !
 ! D164  D(41,29,30,31)          0.0208         estimate D2E/DX2                !
 ! D165  D(28,29,41,40)        179.1248         estimate D2E/DX2                !
 ! D166  D(28,29,41,42)         -0.4062         estimate D2E/DX2                !
 ! D167  D(30,29,41,40)          0.1491         estimate D2E/DX2                !
 ! D168  D(30,29,41,42)       -179.3818         estimate D2E/DX2                !
 ! D169  D(29,30,31,32)        179.2386         estimate D2E/DX2                !
 ! D170  D(29,30,31,40)         -0.1907         estimate D2E/DX2                !
 ! D171  D(30,31,32,33)       -179.6663         estimate D2E/DX2                !
 ! D172  D(30,31,32,72)          0.6946         estimate D2E/DX2                !
 ! D173  D(40,31,32,33)         -0.3119         estimate D2E/DX2                !
 ! D174  D(40,31,32,72)       -179.951          estimate D2E/DX2                !
 ! D175  D(30,31,40,39)        179.6931         estimate D2E/DX2                !
 ! D176  D(30,31,40,41)          0.2794         estimate D2E/DX2                !
 ! D177  D(32,31,40,39)          0.2574         estimate D2E/DX2                !
 ! D178  D(32,31,40,41)       -179.1563         estimate D2E/DX2                !
 ! D179  D(31,32,33,34)        178.8479         estimate D2E/DX2                !
 ! D180  D(31,32,33,38)          0.5204         estimate D2E/DX2                !
 ! D181  D(72,32,33,34)         -1.5199         estimate D2E/DX2                !
 ! D182  D(72,32,33,38)       -179.8474         estimate D2E/DX2                !
 ! D183  D(32,33,34,35)       -102.8755         estimate D2E/DX2                !
 ! D184  D(32,33,34,36)         17.4769         estimate D2E/DX2                !
 ! D185  D(32,33,34,37)        137.7749         estimate D2E/DX2                !
 ! D186  D(38,33,34,35)         75.4571         estimate D2E/DX2                !
 ! D187  D(38,33,34,36)       -164.1905         estimate D2E/DX2                !
 ! D188  D(38,33,34,37)        -43.8926         estimate D2E/DX2                !
 ! D189  D(32,33,38,39)         -0.7091         estimate D2E/DX2                !
 ! D190  D(32,33,38,73)        179.0841         estimate D2E/DX2                !
 ! D191  D(34,33,38,39)       -179.0496         estimate D2E/DX2                !
 ! D192  D(34,33,38,73)          0.7437         estimate D2E/DX2                !
 ! D193  D(33,38,39,40)          0.6416         estimate D2E/DX2                !
 ! D194  D(33,38,39,74)       -179.8596         estimate D2E/DX2                !
 ! D195  D(73,38,39,40)       -179.1536         estimate D2E/DX2                !
 ! D196  D(73,38,39,74)          0.3452         estimate D2E/DX2                !
 ! D197  D(38,39,40,31)         -0.404          estimate D2E/DX2                !
 ! D198  D(38,39,40,41)        178.787          estimate D2E/DX2                !
 ! D199  D(74,39,40,31)       -179.8984         estimate D2E/DX2                !
 ! D200  D(74,39,40,41)         -0.7074         estimate D2E/DX2                !
 ! D201  D(31,40,41,29)         -0.2542         estimate D2E/DX2                !
 ! D202  D(31,40,41,42)        179.1388         estimate D2E/DX2                !
 ! D203  D(39,40,41,29)       -179.5149         estimate D2E/DX2                !
 ! D204  D(39,40,41,42)         -0.1219         estimate D2E/DX2                !
 ! D205  D(29,41,42,43)          0.6726         estimate D2E/DX2                !
 ! D206  D(29,41,42,75)        179.8306         estimate D2E/DX2                !
 ! D207  D(40,41,42,43)       -178.6717         estimate D2E/DX2                !
 ! D208  D(40,41,42,75)          0.4863         estimate D2E/DX2                !
 ! D209  D(41,42,43,27)         -0.6401         estimate D2E/DX2                !
 ! D210  D(41,42,43,44)        178.8632         estimate D2E/DX2                !
 ! D211  D(75,42,43,27)       -179.7962         estimate D2E/DX2                !
 ! D212  D(75,42,43,44)         -0.293          estimate D2E/DX2                !
 ! D213  D(27,43,44,25)          0.3508         estimate D2E/DX2                !
 ! D214  D(27,43,44,45)       -179.3321         estimate D2E/DX2                !
 ! D215  D(42,43,44,25)       -179.1898         estimate D2E/DX2                !
 ! D216  D(42,43,44,45)          1.1273         estimate D2E/DX2                !
 ! D217  D(25,44,45,22)          1.7739         estimate D2E/DX2                !
 ! D218  D(25,44,45,76)       -175.4917         estimate D2E/DX2                !
 ! D219  D(43,44,45,22)       -178.5737         estimate D2E/DX2                !
 ! D220  D(43,44,45,76)          4.1608         estimate D2E/DX2                !
 --------------------------------------------------------------------------------
 Trust Radius=3.00D-01 FncErr=1.00D-07 GrdErr=1.00D-06 EigMax=2.50D+02 EigMin=1.00D-04
 Number of steps in this run=    456 maximum allowed number of steps=    456.
 GradGradGradGradGradGradGradGradGradGradGradGradGradGradGradGradGradGrad

 Leave Link  103 at Wed Dec  6 02:12:04 2023, MaxMem=  2147483648 cpu:             556.5 elap:              22.4
 (Enter /opt/gaussian/g16-c01/g16/l202.exe)
 Stoichiometry    C38H31F3N2O2
 Framework group  C1[X(C38H31F3N2O2)]
 Deg. of freedom   222
 Full point group                 C1      NOp   1
 Largest Abelian subgroup         C1      NOp   1
 Largest concise Abelian subgroup C1      NOp   1
                         Standard orientation:                         
 ---------------------------------------------------------------------
 Center     Atomic      Atomic             Coordinates (Angstroms)
 Number     Number       Type             X           Y           Z
 ---------------------------------------------------------------------
      1          6           0        4.808069    5.360908    0.755896
      2          6           0        4.052943    4.993680   -0.542913
      3          6           0        2.858361    5.971154   -0.647987
      4          6           0        4.979502    5.240145   -1.748491
      5          6           0        3.632410    3.512674   -0.536466
      6          6           0        2.365673    3.088148   -0.944374
      7          6           0        1.988924    1.736795   -0.928186
      8          6           0        2.901577    0.769047   -0.464686
      9          6           0        4.200035    1.143949   -0.122328
     10          6           0        4.554106    2.514525   -0.160421
     11          6           0        4.927546   -0.039589    0.196393
     12          6           0        6.276401   -0.273713    0.566634
     13          6           0        6.744003   -1.565227    0.867120
     14          6           0        8.221590   -1.856551    1.199557
     15          6           0        9.146457   -0.625506    1.059426
     16          6           0        8.341667   -2.363421    2.651629
     17          6           0        8.764966   -2.938127    0.234462
     18          6           0        5.805585   -2.606843    0.849511
     19          6           0        4.464282   -2.405958    0.490318
     20          6           0        4.046059   -1.117232    0.108955
     21          7           0        2.812605   -0.622895   -0.330264
     22          6           0        1.651173   -1.415252   -0.614455
     23          6           0        1.786425   -2.659722   -1.250015
     24          6           0        0.673312   -3.450928   -1.558353
     25          6           0       -0.573963   -2.931018   -1.224702
     26          8           0       -1.768222   -3.537288   -1.462051
     27          6           0       -2.737832   -2.700751   -1.005554
     28          7           0       -4.051330   -2.965872   -1.087471
     29          6           0       -4.847576   -2.000087   -0.600556
     30          8           0       -6.206295   -2.064289   -0.608662
     31          6           0       -6.665649   -0.908582   -0.060182
     32          6           0       -8.010856   -0.575417    0.100784
     33          6           0       -8.295111    0.671742    0.684100
     34          6           0       -9.727180    1.121002    0.870666
     35          9           0      -10.104745    2.037828   -0.061905
     36          9           0      -10.631211    0.105927    0.790258
     37          9           0       -9.934467    1.710524    2.079525
     38          6           0       -7.242944    1.524678    1.065762
     39          6           0       -5.898009    1.159484    0.893782
     40          6           0       -5.606128   -0.086693    0.312266
     41          6           0       -4.425034   -0.793936   -0.042183
     42          6           0       -3.042576   -0.567922    0.026506
     43          6           0       -2.168856   -1.542704   -0.474191
     44          6           0       -0.762041   -1.695132   -0.612053
     45          6           0        0.371357   -0.926920   -0.281466
     46          1           0        5.762345    4.829565    0.854227
     47          1           0        5.045180    6.431232    0.784843
     48          1           0        4.206542    5.130643    1.643781
     49          1           0        2.138914    5.809682    0.164598
     50          1           0        3.196492    7.014698   -0.590355
     51          1           0        2.326329    5.866986   -1.601441
     52          1           0        4.468193    5.022195   -2.694918
     53          1           0        5.877922    4.610750   -1.710005
     54          1           0        5.312009    6.283344   -1.781740
     55          1           0        1.620296    3.796308   -1.301283
     56          1           0        1.004239    1.466620   -1.295336
     57          1           0        5.572392    2.781261    0.108961
     58          1           0        6.938713    0.586453    0.598677
     59          1           0       10.191058   -0.892272    1.270303
     60          1           0        9.112590   -0.209372    0.044894
     61          1           0        8.868967    0.167159    1.762999
     62          1           0        9.377144   -2.640620    2.885480
     63          1           0        8.036127   -1.591710    3.368403
     64          1           0        7.721880   -3.248235    2.840055
     65          1           0        9.833398   -3.119661    0.404319
     66          1           0        8.256011   -3.900945    0.356265
     67          1           0        8.640563   -2.628291   -0.812305
     68          1           0        6.105597   -3.618420    1.117930
     69          1           0        3.778671   -3.248069    0.513990
     70          1           0        2.770534   -3.033849   -1.549789
     71          1           0        0.769155   -4.411240   -2.051889
     72          1           0       -8.792289   -1.263564   -0.210772
     73          1           0       -7.469084    2.497894    1.504296
     74          1           0       -5.104869    1.835064    1.198798
     75          1           0       -2.657084    0.355567    0.449249
     76          1           0        0.241091    0.002116    0.261462
 ---------------------------------------------------------------------
 Rotational constants (GHZ):           0.1145628           0.0232889           0.0202480
 Leave Link  202 at Wed Dec  6 02:12:04 2023, MaxMem=  2147483648 cpu:               4.6 elap:               0.3
 (Enter /opt/gaussian/g16-c01/g16/l301.exe)
 Standard basis: 6-311++G(d,p) (5D, 7F)
 Ernie: Thresh=  0.10000D-02 Tol=  0.10000D-05 Strict=F.
 There are  1252 symmetry adapted cartesian basis functions of A   symmetry.
 There are  1207 symmetry adapted basis functions of A   symmetry.
  1207 basis functions,  1899 primitive gaussians,  1252 cartesian basis functions
   158 alpha electrons      158 beta electrons
       nuclear repulsion energy      4847.7233330546 Hartrees.
 IExCor= 7252 DFT=T Ex+Corr=MN15 ExCW=0 ScaHFX=  0.440000
 ScaDFX=  1.000000  1.000000  1.000000  1.000000 ScalE2=  1.000000  1.000000
 IRadAn=      5 IRanWt=     -1 IRanGd=            0 ICorTp=0 IEmpDi=  4
 NAtoms=   76 NActive=   76 NUniq=   76 SFac= 1.00D+00 NAtFMM=   60 NAOKFM=T Big=T
 Integral buffers will be    131072 words long.
 Raffenetti 2 integral format.
 Two-electron integral symmetry is turned on.
 Leave Link  301 at Wed Dec  6 02:12:04 2023, MaxMem=  2147483648 cpu:               3.5 elap:               0.2
 (Enter /opt/gaussian/g16-c01/g16/l302.exe)
 NPDir=0 NMtPBC=     1 NCelOv=     1 NCel=       1 NClECP=     1 NCelD=      1
         NCelK=      1 NCelE2=     1 NClLst=     1 CellRange=     0.0.
 One-electron integrals computed using PRISM.
 One-electron integral symmetry used in STVInt
 NBasis=  1207 RedAO= T EigKep=  1.10D-06  NBF=  1207
 NBsUse=  1185 1.00D-06 EigRej=  9.11D-07 NBFU=  1185
 Precomputing XC quadrature grid using
 IXCGrd= 4 IRadAn=           5 IRanWt=          -1 IRanGd=           0 AccXCQ= 0.00D+00.
 Generated NRdTot=       0 NPtTot=           0 NUsed=           0 NTot=          32
 NSgBfM=  1132  1132  1132  1132  1132 MxSgAt=    76 MxSgA2=    76.
 Leave Link  302 at Wed Dec  6 02:13:47 2023, MaxMem=  2147483648 cpu:            2556.1 elap:             102.4
 (Enter /opt/gaussian/g16-c01/g16/l303.exe)
 DipDrv:  MaxL=1.
 Leave Link  303 at Wed Dec  6 02:13:47 2023, MaxMem=  2147483648 cpu:               4.9 elap:               0.4
 (Enter /opt/gaussian/g16-c01/g16/l401.exe)
 ExpMin= 3.60D-02 ExpMax= 1.14D+04 ExpMxC= 1.72D+03 IAcc=3 IRadAn=         5 AccDes= 0.00D+00
 Harris functional with IExCor= 1009 and IRadAn=       5 diagonalized for initial guess.
 HarFok:  IExCor= 1009 AccDes= 0.00D+00 IRadAn=         5 IDoV= 1 UseB2=F ITyADJ=14
 ICtDFT=  3500011 ScaDFX=  1.000000  1.000000  1.000000  1.000000
 FoFCou: FMM=F IPFlag=           0 FMFlag=      100000 FMFlg1=        2001
         NFxFlg=           0 DoJE=T BraDBF=F KetDBF=T FulRan=T
         wScrn=  0.000000 ICntrl=       500 IOpCl=  0 I1Cent=   200000004 NGrid=           0
         NMat0=    1 NMatS0=      1 NMatT0=    0 NMatD0=    1 NMtDS0=    0 NMtDT0=    0
 Petite list used in FoFCou.
 Harris En= -2024.96069241635    
 JPrj=0 DoOrth=F DoCkMO=F.
 Leave Link  401 at Wed Dec  6 02:14:03 2023, MaxMem=  2147483648 cpu:             395.5 elap:              15.7
 (Enter /opt/gaussian/g16-c01/g16/l502.exe)
 Integral symmetry usage will be decided dynamically.
 Closed shell SCF:
 Using DIIS extrapolation, IDIIS=  1040.
 NGot=  2147483648 LenX=  2144302674 LenY=  2142733918
 Requested convergence on RMS density matrix=1.00D-08 within 128 cycles.
 Requested convergence on MAX density matrix=1.00D-06.
 Requested convergence on             energy=1.00D-06.
 No special actions if energy rises.
 Fock matrices will be formed incrementally for  20 cycles.

 Cycle   1  Pass 1  IDiag  1:
 FoFJK:  IHMeth= 1 ICntrl=       0 DoSepK=F KAlg= 0 I1Cent=           0 FoldK=F
 IRaf= 710000000 NMat=       1 IRICut=       1 DoRegI=T DoRafI=F ISym2E= 0 IDoP0=0 IntGTp=1.
 FoFCou: FMM=T IPFlag=           0 FMFlag=      100000 FMFlg1=        2001
         NFxFlg=           0 DoJE=F BraDBF=F KetDBF=F FulRan=T
         wScrn=  0.000000 ICntrl=         0 IOpCl=  0 I1Cent=           0 NGrid=           0
         NMat0=    1 NMatS0=      1 NMatT0=    0 NMatD0=    1 NMtDS0=    0 NMtDT0=    0
 Symmetry not used in FoFCou.
 FMM levels:  10  Number of levels for PrismC:   9
 E= -2023.50509274865    
 DIIS: error= 3.56D-02 at cycle   1 NSaved=   1.
 NSaved= 1 IEnMin= 1 EnMin= -2023.50509274865     IErMin= 1 ErrMin= 3.56D-02
 ErrMax= 3.56D-02  0.00D+00 EMaxC= 1.00D-01 BMatC= 1.17D+00 BMatP= 1.17D+00
 IDIUse=3 WtCom= 6.44D-01 WtEn= 3.56D-01
 Coeff-Com:  0.100D+01
 Coeff-En:   0.100D+01
 Coeff:      0.100D+01
 Gap=     0.189 Goal=   None    Shift=    0.000
 GapD=    0.189 DampG=1.000 DampE=0.500 DampFc=0.5000 IDamp=-1.
 Damping current iteration by 5.00D-01
 RMSDP=1.67D-02 MaxDP=4.21D+00              OVMax= 2.00D-01

 Cycle   2  Pass 1  IDiag  1:
 RMSU=  8.37D-03    CP:  1.00D+00
 E= -2023.95082760291     Delta-E=       -0.445734854255 Rises=F Damp=T
 DIIS: error= 1.33D-02 at cycle   2 NSaved=   2.
 NSaved= 2 IEnMin= 2 EnMin= -2023.95082760291     IErMin= 2 ErrMin= 1.33D-02
 ErrMax= 1.33D-02  0.00D+00 EMaxC= 1.00D-01 BMatC= 1.25D-01 BMatP= 1.17D+00
 IDIUse=3 WtCom= 8.67D-01 WtEn= 1.33D-01
 Coeff-Com: -0.577D-01 0.106D+01
 Coeff-En:   0.000D+00 0.100D+01
 Coeff:     -0.500D-01 0.105D+01
 Gap=     0.196 Goal=   None    Shift=    0.000
 RMSDP=1.08D-02 MaxDP=3.65D+00 DE=-4.46D-01 OVMax= 2.00D-01

 Cycle   3  Pass 1  IDiag  1:
 RMSU=  7.39D-03    CP:  8.39D-01  7.37D-01
 E= -2024.37139293682     Delta-E=       -0.420565333913 Rises=F Damp=F
 DIIS: error= 1.31D-02 at cycle   3 NSaved=   3.
 NSaved= 3 IEnMin= 3 EnMin= -2024.37139293682     IErMin= 3 ErrMin= 1.31D-02
 ErrMax= 1.31D-02  0.00D+00 EMaxC= 1.00D-01 BMatC= 7.96D-02 BMatP= 1.25D-01
 IDIUse=3 WtCom= 8.69D-01 WtEn= 1.31D-01
 Coeff-Com: -0.107D+00 0.503D+00 0.605D+00
 Coeff-En:   0.000D+00 0.000D+00 0.100D+01
 Coeff:     -0.933D-01 0.437D+00 0.657D+00
 Gap=     0.195 Goal=   None    Shift=    0.000
 RMSDP=2.96D-03 MaxDP=3.12D-01 DE=-4.21D-01 OVMax= 1.23D-01

 Cycle   4  Pass 1  IDiag  1:
 RMSU=  2.07D-03    CP:  8.17D-01  9.24D-01  8.61D-01
 E= -2024.41311428379     Delta-E=       -0.041721346964 Rises=F Damp=F
 DIIS: error= 9.60D-03 at cycle   4 NSaved=   4.
 NSaved= 4 IEnMin= 4 EnMin= -2024.41311428379     IErMin= 4 ErrMin= 9.60D-03
 ErrMax= 9.60D-03  0.00D+00 EMaxC= 1.00D-01 BMatC= 3.51D-02 BMatP= 7.96D-02
 IDIUse=3 WtCom= 9.04D-01 WtEn= 9.60D-02
 Coeff-Com: -0.467D-01 0.144D+00 0.424D+00 0.479D+00
 Coeff-En:   0.000D+00 0.000D+00 0.341D+00 0.659D+00
 Coeff:     -0.422D-01 0.130D+00 0.416D+00 0.496D+00
 Gap=     0.168 Goal=   None    Shift=    0.000
 RMSDP=1.25D-03 MaxDP=2.58D-01 DE=-4.17D-02 OVMax= 5.71D-02

 Cycle   5  Pass 1  IDiag  1:
 RMSU=  5.73D-04    CP:  8.14D-01  8.77D-01  9.38D-01  5.85D-01
 E= -2024.44680332258     Delta-E=       -0.033689038793 Rises=F Damp=F
 DIIS: error= 1.49D-03 at cycle   5 NSaved=   5.
 NSaved= 5 IEnMin= 5 EnMin= -2024.44680332258     IErMin= 5 ErrMin= 1.49D-03
 ErrMax= 1.49D-03  0.00D+00 EMaxC= 1.00D-01 BMatC= 1.23D-03 BMatP= 3.51D-02
 IDIUse=3 WtCom= 9.85D-01 WtEn= 1.49D-02
 Coeff-Com: -0.167D-01 0.438D-01 0.190D+00 0.264D+00 0.519D+00
 Coeff-En:   0.000D+00 0.000D+00 0.000D+00 0.000D+00 0.100D+01
 Coeff:     -0.164D-01 0.432D-01 0.187D+00 0.260D+00 0.526D+00
 Gap=     0.169 Goal=   None    Shift=    0.000
 RMSDP=3.44D-04 MaxDP=2.97D-02 DE=-3.37D-02 OVMax= 9.29D-03

 Cycle   6  Pass 1  IDiag  1:
 RMSU=  1.99D-04    CP:  8.10D-01  8.79D-01  9.15D-01  6.17D-01  7.24D-01
 E= -2024.44791125215     Delta-E=       -0.001107929570 Rises=F Damp=F
 DIIS: error= 3.85D-04 at cycle   6 NSaved=   6.
 NSaved= 6 IEnMin= 6 EnMin= -2024.44791125215     IErMin= 6 ErrMin= 3.85D-04
 ErrMax= 3.85D-04  0.00D+00 EMaxC= 1.00D-01 BMatC= 1.17D-04 BMatP= 1.23D-03
 IDIUse=3 WtCom= 9.96D-01 WtEn= 3.85D-03
 Coeff-Com: -0.191D-02 0.292D-02 0.373D-01 0.611D-01 0.271D+00 0.630D+00
 Coeff-En:   0.000D+00 0.000D+00 0.000D+00 0.000D+00 0.450D-01 0.955D+00
 Coeff:     -0.190D-02 0.290D-02 0.372D-01 0.608D-01 0.270D+00 0.631D+00
 Gap=     0.169 Goal=   None    Shift=    0.000
 RMSDP=1.26D-04 MaxDP=2.56D-02 DE=-1.11D-03 OVMax= 3.39D-03

 Cycle   7  Pass 1  IDiag  1:
 RMSU=  6.02D-05    CP:  8.11D-01  8.73D-01  9.26D-01  6.05D-01  7.84D-01
                    CP:  8.18D-01
 E= -2024.44801652737     Delta-E=       -0.000105275220 Rises=F Damp=F
 DIIS: error= 9.27D-05 at cycle   7 NSaved=   7.
 NSaved= 7 IEnMin= 7 EnMin= -2024.44801652737     IErMin= 7 ErrMin= 9.27D-05
 ErrMax= 9.27D-05  0.00D+00 EMaxC= 1.00D-01 BMatC= 1.45D-05 BMatP= 1.17D-04
 IDIUse=1 WtCom= 1.00D+00 WtEn= 0.00D+00
 Coeff-Com:  0.634D-03-0.282D-02 0.122D-02 0.538D-02 0.954D-01 0.345D+00
 Coeff-Com:  0.555D+00
 Coeff:      0.634D-03-0.282D-02 0.122D-02 0.538D-02 0.954D-01 0.345D+00
 Coeff:      0.555D+00
 Gap=     0.169 Goal=   None    Shift=    0.000
 RMSDP=4.67D-05 MaxDP=4.18D-03 DE=-1.05D-04 OVMax= 9.23D-04

 Cycle   8  Pass 1  IDiag  1:
 RMSU=  3.05D-05    CP:  8.11D-01  8.73D-01  9.30D-01  6.08D-01  7.76D-01
                    CP:  7.82D-01  8.77D-01
 E= -2024.44802979933     Delta-E=       -0.000013271965 Rises=F Damp=F
 DIIS: error= 2.97D-05 at cycle   8 NSaved=   8.
 NSaved= 8 IEnMin= 8 EnMin= -2024.44802979933     IErMin= 8 ErrMin= 2.97D-05
 ErrMax= 2.97D-05  0.00D+00 EMaxC= 1.00D-01 BMatC= 1.40D-06 BMatP= 1.45D-05
 IDIUse=1 WtCom= 1.00D+00 WtEn= 0.00D+00
 Coeff-Com:  0.639D-03-0.207D-02-0.465D-02-0.628D-02 0.110D-01 0.885D-01
 Coeff-Com:  0.277D+00 0.636D+00
 Coeff:      0.639D-03-0.207D-02-0.465D-02-0.628D-02 0.110D-01 0.885D-01
 Coeff:      0.277D+00 0.636D+00
 Gap=     0.169 Goal=   None    Shift=    0.000
 RMSDP=1.56D-05 MaxDP=1.74D-03 DE=-1.33D-05 OVMax= 3.11D-04

 Cycle   9  Pass 1  IDiag  1:
 RMSU=  7.65D-06    CP:  8.11D-01  8.73D-01  9.30D-01  6.07D-01  7.80D-01
                    CP:  8.04D-01  9.65D-01  8.81D-01
 E= -2024.44803105678     Delta-E=       -0.000001257444 Rises=F Damp=F
 DIIS: error= 7.99D-06 at cycle   9 NSaved=   9.
 NSaved= 9 IEnMin= 9 EnMin= -2024.44803105678     IErMin= 9 ErrMin= 7.99D-06
 ErrMax= 7.99D-06  0.00D+00 EMaxC= 1.00D-01 BMatC= 1.39D-07 BMatP= 1.40D-06
 IDIUse=1 WtCom= 1.00D+00 WtEn= 0.00D+00
 Coeff-Com:  0.264D-03-0.747D-03-0.229D-02-0.372D-02-0.392D-02 0.104D-01
 Coeff-Com:  0.796D-01 0.290D+00 0.631D+00
 Coeff:      0.264D-03-0.747D-03-0.229D-02-0.372D-02-0.392D-02 0.104D-01
 Coeff:      0.796D-01 0.290D+00 0.631D+00
 Gap=     0.169 Goal=   None    Shift=    0.000
 RMSDP=3.70D-06 MaxDP=2.66D-04 DE=-1.26D-06 OVMax= 1.30D-04

 Cycle  10  Pass 1  IDiag  1:
 RMSU=  2.39D-06    CP:  8.11D-01  8.73D-01  9.30D-01  6.07D-01  7.82D-01
                    CP:  8.08D-01  9.71D-01  9.31D-01  7.63D-01
 E= -2024.44803120688     Delta-E=       -0.000000150108 Rises=F Damp=F
 DIIS: error= 4.12D-06 at cycle  10 NSaved=  10.
 NSaved=10 IEnMin=10 EnMin= -2024.44803120688     IErMin=10 ErrMin= 4.12D-06
 ErrMax= 4.12D-06  0.00D+00 EMaxC= 1.00D-01 BMatC= 2.64D-08 BMatP= 1.39D-07
 IDIUse=1 WtCom= 1.00D+00 WtEn= 0.00D+00
 Coeff-Com:  0.399D-04-0.539D-04-0.408D-03-0.991D-03-0.435D-02-0.970D-02
 Coeff-Com: -0.656D-02 0.306D-01 0.317D+00 0.675D+00
 Coeff:      0.399D-04-0.539D-04-0.408D-03-0.991D-03-0.435D-02-0.970D-02
 Coeff:     -0.656D-02 0.306D-01 0.317D+00 0.675D+00
 Gap=     0.169 Goal=   None    Shift=    0.000
 RMSDP=2.49D-06 MaxDP=5.40D-04 DE=-1.50D-07 OVMax= 5.62D-05

 Cycle  11  Pass 1  IDiag  1:
 RMSU=  1.05D-06    CP:  8.11D-01  8.73D-01  9.30D-01  6.07D-01  7.83D-01
                    CP:  8.12D-01  9.85D-01  9.29D-01  8.75D-01  9.43D-01
 E= -2024.44803123572     Delta-E=       -0.000000028838 Rises=F Damp=F
 DIIS: error= 1.63D-06 at cycle  11 NSaved=  11.
 NSaved=11 IEnMin=11 EnMin= -2024.44803123572     IErMin=11 ErrMin= 1.63D-06
 ErrMax= 1.63D-06  0.00D+00 EMaxC= 1.00D-01 BMatC= 3.93D-09 BMatP= 2.64D-08
 IDIUse=1 WtCom= 1.00D+00 WtEn= 0.00D+00
 Coeff-Com: -0.223D-04 0.932D-04 0.207D-03 0.121D-03-0.148D-02-0.589D-02
 Coeff-Com: -0.150D-01-0.322D-01 0.652D-01 0.343D+00 0.646D+00
 Coeff:     -0.223D-04 0.932D-04 0.207D-03 0.121D-03-0.148D-02-0.589D-02
 Coeff:     -0.150D-01-0.322D-01 0.652D-01 0.343D+00 0.646D+00
 Gap=     0.169 Goal=   None    Shift=    0.000
 RMSDP=8.59D-07 MaxDP=9.62D-05 DE=-2.88D-08 OVMax= 3.40D-05

 Cycle  12  Pass 1  IDiag  1:
 RMSU=  4.55D-07    CP:  8.11D-01  8.73D-01  9.30D-01  6.06D-01  7.82D-01
                    CP:  8.11D-01  9.86D-01  9.39D-01  9.00D-01  9.47D-01
                    CP:  8.76D-01
 E= -2024.44803124063     Delta-E=       -0.000000004911 Rises=F Damp=F
 DIIS: error= 8.61D-07 at cycle  12 NSaved=  12.
 NSaved=12 IEnMin=12 EnMin= -2024.44803124063     IErMin=12 ErrMin= 8.61D-07
 ErrMax= 8.61D-07  0.00D+00 EMaxC= 1.00D-01 BMatC= 3.91D-10 BMatP= 3.93D-09
 IDIUse=1 WtCom= 1.00D+00 WtEn= 0.00D+00
 Coeff-Com: -0.138D-04 0.447D-04 0.140D-03 0.167D-03-0.139D-03-0.134D-02
 Coeff-Com: -0.535D-02-0.180D-01-0.103D-01 0.550D-01 0.278D+00 0.701D+00
 Coeff:     -0.138D-04 0.447D-04 0.140D-03 0.167D-03-0.139D-03-0.134D-02
 Coeff:     -0.535D-02-0.180D-01-0.103D-01 0.550D-01 0.278D+00 0.701D+00
 Gap=     0.169 Goal=   None    Shift=    0.000
 RMSDP=2.45D-07 MaxDP=6.39D-05 DE=-4.91D-09 OVMax= 9.55D-06

 Cycle  13  Pass 1  IDiag  1:
 RMSU=  1.50D-07    CP:  8.11D-01  8.73D-01  9.30D-01  6.06D-01  7.82D-01
                    CP:  8.11D-01  9.87D-01  9.38D-01  8.96D-01  9.95D-01
                    CP:  9.50D-01  8.56D-01
 E= -2024.44803124160     Delta-E=       -0.000000000971 Rises=F Damp=F
 DIIS: error= 1.76D-07 at cycle  13 NSaved=  13.
 NSaved=13 IEnMin=13 EnMin= -2024.44803124160     IErMin=13 ErrMin= 1.76D-07
 ErrMax= 1.76D-07  0.00D+00 EMaxC= 1.00D-01 BMatC= 5.49D-11 BMatP= 3.91D-10
 IDIUse=1 WtCom= 1.00D+00 WtEn= 0.00D+00
 Coeff-Com: -0.238D-05 0.503D-05 0.282D-04 0.521D-04 0.133D-03 0.252D-03
 Coeff-Com: -0.551D-06-0.342D-02-0.140D-01-0.292D-01 0.299D-01 0.307D+00
 Coeff-Com:  0.710D+00
 Coeff:     -0.238D-05 0.503D-05 0.282D-04 0.521D-04 0.133D-03 0.252D-03
 Coeff:     -0.551D-06-0.342D-02-0.140D-01-0.292D-01 0.299D-01 0.307D+00
 Coeff:      0.710D+00
 Gap=     0.169 Goal=   None    Shift=    0.000
 RMSDP=9.57D-08 MaxDP=1.14D-05 DE=-9.71D-10 OVMax= 5.48D-06

 Cycle  14  Pass 1  IDiag  1:
 RMSU=  5.20D-08    CP:  8.11D-01  8.73D-01  9.30D-01  6.07D-01  7.82D-01
                    CP:  8.11D-01  9.87D-01  9.38D-01  8.97D-01  1.00D+00
                    CP:  9.83D-01  9.02D-01  1.03D+00
 E= -2024.44803124139     Delta-E=        0.000000000213 Rises=F Damp=F
 DIIS: error= 1.28D-07 at cycle  14 NSaved=  14.
 NSaved=14 IEnMin=13 EnMin= -2024.44803124160     IErMin=14 ErrMin= 1.28D-07
 ErrMax= 1.28D-07  0.00D+00 EMaxC= 1.00D-01 BMatC= 8.57D-12 BMatP= 5.49D-11
 IDIUse=1 WtCom= 1.00D+00 WtEn= 0.00D+00
 Coeff-Com:  0.635D-06-0.334D-05-0.430D-05 0.451D-05 0.903D-04 0.327D-03
 Coeff-Com:  0.828D-03 0.920D-03-0.479D-02-0.215D-01-0.252D-01 0.373D-01
 Coeff-Com:  0.320D+00 0.692D+00
 Coeff:      0.635D-06-0.334D-05-0.430D-05 0.451D-05 0.903D-04 0.327D-03
 Coeff:      0.828D-03 0.920D-03-0.479D-02-0.215D-01-0.252D-01 0.373D-01
 Coeff:      0.320D+00 0.692D+00
 Gap=     0.169 Goal=   None    Shift=    0.000
 RMSDP=5.63D-08 MaxDP=1.84D-05 DE= 2.13D-10 OVMax= 1.89D-06

 Cycle  15  Pass 1  IDiag  1:
 RMSU=  2.05D-08    CP:  8.11D-01  8.73D-01  9.30D-01  6.07D-01  7.82D-01
                    CP:  8.11D-01  9.87D-01  9.37D-01  8.96D-01  1.00D+00
                    CP:  9.93D-01  9.12D-01  1.15D+00  9.99D-01
 E= -2024.44803124145     Delta-E=       -0.000000000062 Rises=F Damp=F
 DIIS: error= 3.88D-08 at cycle  15 NSaved=  15.
 NSaved=15 IEnMin=13 EnMin= -2024.44803124160     IErMin=15 ErrMin= 3.88D-08
 ErrMax= 3.88D-08  0.00D+00 EMaxC= 1.00D-01 BMatC= 1.30D-12 BMatP= 8.57D-12
 IDIUse=1 WtCom= 1.00D+00 WtEn= 0.00D+00
 Coeff-Com:  0.596D-06-0.209D-05-0.613D-05-0.526D-05 0.167D-04 0.926D-04
 Coeff-Com:  0.348D-03 0.866D-03 0.148D-03-0.476D-02-0.149D-01-0.312D-01
 Coeff-Com:  0.328D-01 0.305D+00 0.711D+00
 Coeff:      0.596D-06-0.209D-05-0.613D-05-0.526D-05 0.167D-04 0.926D-04
 Coeff:      0.348D-03 0.866D-03 0.148D-03-0.476D-02-0.149D-01-0.312D-01
 Coeff:      0.328D-01 0.305D+00 0.711D+00
 Gap=     0.169 Goal=   None    Shift=    0.000
 RMSDP=1.24D-08 MaxDP=1.54D-06 DE=-6.18D-11 OVMax= 1.00D-06

 Cycle  16  Pass 1  IDiag  1:
 RMSU=  8.43D-09    CP:  8.11D-01  8.73D-01  9.30D-01  6.07D-01  7.82D-01
                    CP:  8.11D-01  9.87D-01  9.37D-01  8.96D-01  9.98D-01
                    CP:  9.94D-01  9.19D-01  1.16D+00  1.09D+00  1.01D+00
 E= -2024.44803124112     Delta-E=        0.000000000333 Rises=F Damp=F
 DIIS: error= 2.17D-08 at cycle  16 NSaved=  16.
 NSaved=16 IEnMin=13 EnMin= -2024.44803124160     IErMin=16 ErrMin= 2.17D-08
 ErrMax= 2.17D-08  0.00D+00 EMaxC= 1.00D-01 BMatC= 3.02D-13 BMatP= 1.30D-12
 IDIUse=1 WtCom= 1.00D+00 WtEn= 0.00D+00
 Coeff-Com:  0.207D-06-0.550D-06-0.270D-05-0.350D-05-0.781D-05-0.107D-04
 Coeff-Com:  0.340D-04 0.272D-03 0.966D-03 0.139D-02-0.353D-02-0.239D-01
 Coeff-Com: -0.407D-01 0.328D-01 0.370D+00 0.662D+00
 Coeff:      0.207D-06-0.550D-06-0.270D-05-0.350D-05-0.781D-05-0.107D-04
 Coeff:      0.340D-04 0.272D-03 0.966D-03 0.139D-02-0.353D-02-0.239D-01
 Coeff:     -0.407D-01 0.328D-01 0.370D+00 0.662D+00
 Gap=     0.169 Goal=   None    Shift=    0.000
 RMSDP=7.56D-09 MaxDP=2.82D-06 DE= 3.33D-10 OVMax= 3.11D-07

 Cycle  17  Pass 1  IDiag  1:
 RMSU=  3.00D-09    CP:  8.11D-01  8.73D-01  9.30D-01  6.07D-01  7.82D-01
                    CP:  8.11D-01  9.87D-01  9.37D-01  8.96D-01  9.98D-01
                    CP:  9.96D-01  9.16D-01  1.18D+00  1.11D+00  1.11D+00
                    CP:  9.44D-01
 E= -2024.44803124134     Delta-E=       -0.000000000219 Rises=F Damp=F
 DIIS: error= 5.42D-09 at cycle  17 NSaved=  17.
 NSaved=17 IEnMin=13 EnMin= -2024.44803124160     IErMin=17 ErrMin= 5.42D-09
 ErrMax= 5.42D-09  0.00D+00 EMaxC= 1.00D-01 BMatC= 4.33D-14 BMatP= 3.02D-13
 IDIUse=1 WtCom= 1.00D+00 WtEn= 0.00D+00
 Coeff-Com:  0.127D-07 0.359D-07-0.519D-06-0.956D-06-0.631D-05-0.183D-04
 Coeff-Com: -0.315D-04 0.952D-05 0.483D-03 0.140D-02 0.360D-03-0.750D-02
 Coeff-Com: -0.253D-01-0.277D-01 0.949D-01 0.344D+00 0.619D+00
 Coeff:      0.127D-07 0.359D-07-0.519D-06-0.956D-06-0.631D-05-0.183D-04
 Coeff:     -0.315D-04 0.952D-05 0.483D-03 0.140D-02 0.360D-03-0.750D-02
 Coeff:     -0.253D-01-0.277D-01 0.949D-01 0.344D+00 0.619D+00
 Gap=     0.169 Goal=   None    Shift=    0.000
 RMSDP=2.16D-09 MaxDP=4.81D-07 DE=-2.19D-10 OVMax= 1.26D-07

 SCF Done:  E(RMN15) =  -2024.44803124     A.U. after   17 cycles
[...]
 -0.00000155,-0.00000024,0.00000037,0.00000142,0.00000047,-0.00000392,-
 0.00000443,-0.00000353,0.00000136,0.00000741,-0.00000699,0.00000243,-0
 .00000011,-0.00000059,0.00000008,0.00000107,0.00000078,0.00000123,-0.0
 0000090,-0.00000040,-0.00000101,0.00000003,-0.00000096,-0.00000043,0.0
 0000058,0.00000068,0.00000114,-0.00000092,-0.00000123,-0.00000018,0.00
 000145,0.00000021,-0.00000064,0.,0.00000099,0.00000158,-0.00000103,-0.
 00000015,-0.00000051,0.00000072,0.00000032,-0.00000077,0.00000028,-0.0
 0000081,0.00000035,-0.00000192,0.00000018,-0.00000098,0.00000019,0.000
 00248,-0.00000015,-0.00000007,0.00000142,0.00000122,0.00000118,0.00000
 081,0.00002523,-0.00044514,-0.00050270,0.00029161,-0.00261829,-0.00248
 429,-0.09204867,-0.05666801,0.07366760,0.00000243,0.00000542,0.0000025
 3,-0.00000291,-0.00001421,-0.00000292,0.00000371,0.00000330,-0.0000012
 1,0.00000142,0.00000669,-0.00000223,0.00000689,-0.00000747,-0.00000759
 ,-0.00000897,-0.00002830,0.00000342,0.00000414,0.00001994,0.00003277,-
 0.00001553,-0.00005948,-0.00000246,0.00001135,-0.00000618,-0.00000465,
 0.00000423,0.00001057,0.00000104,0.00002216,0.00002095,-0.00000621,-0.
 00000169,-0.00000205,0.00000093,0.00000194,0.00000274,0.,-0.00001028,0
 .00000273,0.00000403,0.00000203,-0.00000295,-0.00000203,0.00000496,-0.
 00000221,-0.00000010,0.00000368,-0.00000180,-0.00000453,-0.00000343,0.
 00000250,0.00000141,0.00000802,-0.00001584,-0.00000776,-0.00006956,0.0
 0006418,0.00003641,0.00010941,0.00001470,-0.00001964,-0.00028394,-0.00
 005027,0.00003870,0.00003429,-0.00005586,0.00005014,-0.00002247,-0.000
 05710,0.00005743,0.00044908,-0.00007825,0.00004157,0.00011605,0.000815
 98,-0.00068675,-0.00055238,0.00232429,-0.00154504,-0.00051941,0.000208
 83,-0.00028775,-0.00361542,0.00172645,-0.00098429,-0.00216427,-0.00050
 372,0.00045163,0.00015323,-0.00092280,0.00073011,0.00009215,0.00004642
 ,-0.00003189,0.00007003,0.00001578,-0.00001646,-0.00007916,0.00002793,
 -0.00001431,0.00001780,-0.00000997,-0.00000090,0.00005996,0.00001370,-
 0.00000686,0.00001648,0.,-0.00000188,0.00003566,0.00025962,-0.00021160
 ,-0.00047949,-0.00008111,0.00007700,0.00179107,0.00023875,-0.00036437,
 -0.00932697,-0.02050953,0.01695482,-0.14718256,-0.10152257,0.08518770,
 0.01283857,0.00817041,-0.00683940,-0.00024735,-0.00055894,0.00034097,0
 .00064245,0.00012398,-0.00014655,-0.00000298,-0.00000089,0.00000164,0.
 00000476,0.00000574,-0.00000089,-0.00000130,-0.00000350,0.00000171,-0.
 00000085,-0.00000391,-0.00000015,0.00000473,0.00000452,0.00000008,-0.0
 0000113,-0.00000238,-0.00000045,-0.00000193,-0.00000163,-0.00000024,-0
 .00000295,-0.00000068,-0.00000020,0.00000507,0.00000477,0.00000135,-0.
 00000338,0.00000090,-0.00000120,0.00000544,-0.00000633,-0.00003185,0.0
 0000402,-0.00000036,-0.00000148,0.00000176,0.00000214,-0.00000045,0.00
 000313,-0.00000247,-0.00000157,-0.00000209,0.00000086,-0.00000022,-0.0
 0000146,0.00000014,0.00000181,0.00000364,-0.00000282,-0.00000301,-0.00
 000083,0.00000143,0.00000179,-0.00000071,0.00000156,0.00000166,0.00000
 420,-0.00000319,-0.00000100,-0.00000130,0.00000203,0.00000035,-0.00000
 142,0.00000154,0.00000027,-0.00000006,-0.00000385,-0.00000081,-0.00000
 071,0.00000624,0.00000307,-0.00000405,-0.00002218,0.00001762,0.0000132
 3,-0.00001203,0.00000926,0.00001487,-0.00000853,0.00000650,-0.00002622
 ,0.00000536,-0.00000210,-0.00012811,0.00036921,-0.00028880,0.14843784,
 -0.00000254,-0.00000350,-0.00000155,0.00000254,0.00000891,0.00000429,-
 0.00000524,-0.00000285,-0.00000223,-0.00000093,-0.00000428,0.00000023,
 0.00000037,0.00000013,-0.00000114,-0.00000179,0.00001161,0.00000272,-0
 .00000841,-0.00000259,-0.00001019,0.00002815,0.00002277,0.00000642,-0.
 00000017,0.00000185,-0.00000108,0.00000258,-0.00000243,-0.00000202,-0.
 00000104,0.00000383,-0.00000354,-0.00000134,0.00000095,-0.00000030,-0.
 00000128,-0.00000408,-0.00000346,0.00000342,-0.00000196,0.00000006,-0.
 00000043,0.00000085,0.00000049,-0.00000041,-0.00000095,0.00000044,-0.0
 0000078,-0.00000071,0.00000060,0.00000307,-0.00000349,-0.00000893,-0.0
 0000224,0.00000234,-0.00000537,-0.00000001,-0.00000884,0.00000722,0.00
 000660,0.00001056,-0.00000617,0.00019907,0.00007201,-0.00003809,-0.000
 00771,0.00001929,-0.00005401,-0.00000563,0.00012240,0.00004721,-0.0007
 8359,-0.00022852,0.00014352,0.00014844,-0.00155264,0.00058264,0.002645
 49,0.00244683,0.00523264,0.00022584,-0.00178163,-0.00184097,0.00134253
 ,0.00432254,0.00357441,0.00015311,-0.00012527,-0.00046603,-0.00016507,
 -0.00005672,-0.00004938,-0.00002274,0.00005785,0.00012182,-0.00006718,
 -0.00000848,-0.00001939,0.00008914,-0.00002822,0.00007347,-0.00002516,
 0.00001907,-0.00000755,-0.00003927,-0.00000535,-0.00000938,-0.00001859
 ,0.00001075,-0.00004056,0.00001908,-0.00001485,0.00005124,-0.00017118,
 0.00032957,-0.00041455,0.00003271,-0.00165265,-0.00157653,0.00130825,0
 .00595510,-0.00087782,-0.10146085,-0.16898465,0.10714827,-0.01369441,-
 0.00762699,0.01072801,-0.00037205,-0.00042601,-0.00261445,0.00026690,-
 0.00033599,0.00012235,0.00000310,-0.00000055,-0.00000062,-0.00000232,-
 0.00000254,0.00000049,0.00000009,0.00000236,0.00000058,0.00000110,0.00
 000098,0.00000262,-0.00000102,-0.00000177,0.00000027,0.00000029,0.0000
 0151,-0.00000096,0.00000093,0.00000124,0.00000041,0.00000289,-0.000000
 86,-0.00000034,-0.00000257,-0.00000192,-0.00000037,-0.00000257,-0.0000
 0411,-0.00000478,0.00000358,0.00000884,0.00001512,-0.00000032,0.000000
 13,0.00000149,-0.00000006,-0.00000092,0.00000113,-0.00000143,0.0000013
 1,0.00000100,0.00000040,-0.00000056,-0.00000117,0.00000113,0.00000037,
 -0.00000059,-0.00000214,0.00000113,0.00000044,0.00000158,0.00000187,-0
 .00000154,0.00000027,-0.00000218,0.00000038,-0.00000165,0.00000129,0.0
 0000075,0.00000037,-0.00000082,0.00000057,0.00000025,-0.00000085,-0.00
 000066,0.00000158,-0.00000056,0.00000212,0.00000321,-0.00000476,0.0000
 0855,0.00001117,0.00003102,0.00000674,-0.00000995,0.00000408,-0.000000
 38,-0.00000752,0.00000376,-0.00000064,-0.00000646,0.00002411,0.0000176
 2,-0.00020875,-0.00001936,0.00019539,0.11026262,0.16937811,0.00000229,
 0.00000159,0.00000019,-0.00000312,-0.00000478,0.00000174,-0.00000355,0
 .00000216,-0.00000226,0.00000216,0.00000133,-0.00000322,0.00000798,-0.
 00002094,-0.00000863,-0.00000164,-0.00001808,0.00000059,-0.00003576,-0
 .00001418,0.00004958,0.00005373,0.00007974,-0.00001130,-0.00002399,-0.
 00000714,0.00000798,0.00001508,0.00001518,-0.00000106,0.00001448,0.000
 01686,-0.00000651,-0.00000869,-0.00000026,0.00000461,-0.00000456,-0.00
 000804,-0.00000381,-0.00000603,0.00000345,0.00000534,0.00000115,-0.000
 00238,-0.00000050,0.00000424,-0.00000218,0.00000075,0.00000265,-0.0000
 0054,-0.00000270,0.00000714,-0.00000703,-0.00000833,0.00000295,0.00000
 120,-0.00000365,-0.00003743,-0.00000367,0.00002499,-0.00001940,-0.0000
 1476,0.00000617,-0.00013761,-0.00002918,0.00005795,-0.00000352,-0.0000
 5087,-0.00000710,-0.00000649,0.00004982,0.00013413,0.00064436,0.000104
 45,-0.00018827,-0.00017091,0.00058519,-0.00128079,-0.00180161,0.005220
 15,0.00492709,-0.00031704,-0.00183412,-0.00258018,-0.00069030,0.003558
 58,0.00597296,-0.00006977,-0.00045192,-0.00033444,0.00012080,-0.000017
 95,-0.00010588,0.00002463,0.00011554,0.00011357,0.00004796,-0.00002208
 ,-0.00001814,-0.00006751,0.00008012,0.00001977,0.00001758,-0.00004268,
 -0.00001631,0.00003217,-0.00000719,-0.00000373,0.00001815,-0.00001476,
 0.00000197,-0.00000833,0.00004002,0.00000689,0.00014119,-0.00041216,0.
 00014483,-0.00019877,-0.00158242,-0.00232771,-0.00059670,-0.00017171,0
 .00508501,0.08512137,0.10717614,-0.12891189,0.01076345,0.01000147,-0.0
 0328699,0.00021509,-0.00259555,-0.00159488,-0.00023678,0.00008310,-0.0
 0023589,0.00000152,-0.00000246,0.00000005,0.00000151,0.00000324,-0.000
 00016,-0.00000182,0.00000006,0.00000217,0.00000030,-0.00000393,0.00000
 635,0.00000447,0.00000219,0.00000001,-0.00000224,-0.00000017,-0.000004
 90,-0.00000174,0.00000033,-0.00000068,0.00000038,-0.00000225,-0.000000
 70,0.00000181,0.00000306,0.00000110,-0.00001224,-0.00001230,-0.0000071
 6,-0.00000856,0.00002246,-0.00004199,0.00000513,-0.00000131,-0.0000006
 9,-0.00000143,0.00000243,0.00000171,0.00000221,-0.00000142,-0.00000092
 ,-0.00000172,0.00000024,-0.00000155,-0.00000069,0.00000082,0.00000131,
 0.00000182,-0.00000131,-0.00000210,0.00000019,0.00000201,0.00000037,-0
 .00000096,-0.00000033,0.00000153,0.00000265,-0.00000170,-0.00000014,-0
 .00000108,0.00000100,0.00000047,-0.00000121,0.00000051,-0.00000143,0.0
 0000122,-0.00000381,0.00000012,0.00000150,-0.00000207,0.00000403,-0.00
 000989,0.00000973,0.00002996,0.00000614,-0.00000177,0.00000557,0.00000
 477,-0.00000056,0.00000280,0.00000492,0.00001791,0.00003259,0.00018096
 ,0.00017396,0.00006058,-0.09274541,-0.12015558,0.12420427,0.00001322,0
 .00002082,0.00001067,-0.00001130,-0.00005336,0.00000165,0.00001939,0.0
 0001233,-0.00000192,0.00000900,0.00003160,-0.00001007,0.00006258,-0.00
 007495,-0.00002817,-0.00014763,-0.00009402,-0.00001941,-0.00005850,-0.
 00044884,-0.00035578,-0.00045946,-0.00002873,-0.00024157,-0.00016138,-
 0.00005033,0.00019797,0.00002261,0.00007532,0.00000703,0.00010873,0.00
 004658,-0.00011058,-0.00007478,0.00003451,0.00003817,-0.00002509,-0.00
 006345,-0.00000878,-0.00003063,0.00000197,0.00001187,0.00000397,-0.000
 00715,-0.00000509,0.00001812,-0.00000463,-0.00000050,0.00001448,-0.000
 00194,-0.00001442,0.00005101,-0.00003867,-0.00003536,0.00005734,0.0000
 2814,0.00001971,-0.00023292,0.00015004,0.00028337,0.00207635,-0.000482
 33,0.00041675,0.00807520,0.01794479,-0.01531596,-0.00357728,0.00229310
 ,-0.00159296,-0.00112289,-0.00002297,0.00000371,-0.00379316,-0.0000816
 1,0.00046647,-0.00150665,-0.00100381,0.00080368,0.00057534,-0.00088661
 ,0.00067752,0.00002265,0.00013903,-0.00010515,-0.00002042,-0.00002105,
 0.00001175,0.00009805,0.00001741,-0.00001600,-0.00000411,0.00000183,0.
 00000040,-0.00000144,0.00000775,-0.00000475,0.00001866,-0.00001314,0.0
 0001066,-0.00008553,0.00004266,-0.00002592,0.00002327,-0.00002773,-0.0
 0000112,0.00003276,0.,0.00000180,0.00001965,-0.00001302,0.00002150,0.0
 0001609,0.00000416,-0.00000649,-0.00001413,-0.00000489,0.00000433,-0.0
 0000543,-0.00000427,0.00000112,-0.00012859,0.00028629,-0.00021528,-0.0
 0016835,-0.00033320,0.00028137,0.00135434,0.00082931,-0.00088355,0.001
 97526,-0.02165601,0.01823717,-0.06436908,-0.03465008,0.03038546,-0.000
 00935,-0.00000243,0.00000449,0.00001231,0.00001674,-0.00000336,-0.0000
 0453,-0.00000967,0.00000390,-0.00000239,-0.00000853,-0.00000146,0.0000
 1034,0.00001350,0.00000025,-0.00000285,-0.00000633,-0.00000097,-0.0000
 0690,-0.00000436,-0.00000042,-0.00001129,-0.00000259,-0.00000167,0.000
 01714,0.00001367,0.00000627,0.00000696,0.00002992,0.00000727,-0.000082
 72,-0.00006655,-0.00019950,0.00001361,0.00000713,-0.00001316,-0.000002
 29,0.00000941,-0.00000328,0.00000777,-0.00000611,-0.00000388,-0.000005
 20,0.00000275,-0.00000142,-0.00000383,-0.00000031,0.00000606,0.0000081
 0,-0.00000683,-0.00000915,-0.00000172,0.00000246,0.00000519,-0.0000031
 4,0.00000197,0.00000415,0.00000997,-0.00000942,-0.00000023,-0.00000444
 ,0.00000194,-0.00000102,-0.00000215,0.00000508,-0.00000017,0.00000391,
 -0.00001267,-0.00000741,-0.00000190,-0.00004088,-0.00003277,0.00026083
 ,0.00095281,-0.00070704,0.00009369,-0.00005102,0.00000425,0.00000006,0
 .00000012,0.,0.00000053,-0.00000254,0.00000222,-0.00000350,0.00001664,
 -0.00001159,-0.00023861,0.00033497,-0.00024361,0.06127226,0.00000154,0
 .00000361,-0.00000415,0.00000144,-0.00000159,0.00000147,-0.00000745,0.
 00000573,-0.00000044,0.00000083,0.00000106,-0.00000102,0.00011904,-0.0
 0010628,-0.00005400,-0.00017323,-0.00013632,0.00000919,0.00000354,-0.0
 0036064,-0.00030360,0.00024750,0.00094589,0.00014781,-0.00004147,-0.00
 014121,0.00020183,0.00004425,0.00017173,0.00001956,-0.00002117,-0.0000
 4093,0.00001994,0.00006502,-0.00001159,-0.00001815,0.00001946,0.000037
 93,0.00001582,0.00001309,0.00000341,0.00000078,-0.00000047,0.00000202,
 0.00000253,-0.00000578,-0.00000241,0.00000292,-0.00000654,0.00000142,0
 .00000754,-0.00004448,-0.00003176,-0.00001040,-0.00000653,0.00001183,-
 0.00006364,0.00055185,0.00002931,-0.00007979,-0.00174082,-0.00140786,-
 0.00319355,-0.00580640,-0.00730560,0.01052856,0.00297812,0.00191524,0.
 00311760,0.00019276,-0.00018257,-0.00083158,-0.00044018,0.00402592,0.0
 0260651,-0.00044630,-0.00001896,0.00009935,0.00006947,-0.00047307,0.00
 013281,-0.00009045,0.00006906,0.00005751,0.00007400,-0.00004027,0.0000
 0362,-0.00006051,0.00004841,-0.00000342,-0.00001818,-0.00002321,0.0000
 0193,0.00000200,-0.00000930,0.00000472,-0.00000821,0.00001978,-0.00001
 871,0.00003321,-0.00001387,0.00002438,-0.00000893,0.00000651,-0.000004
 95,-0.00000994,0.00000031,-0.00000156,-0.00000869,0.00000510,-0.000016
 21,-0.00000874,-0.00000911,-0.00001464,-0.00000501,-0.00001720,0.00001
 069,0.00001291,0.00004227,0.00005716,-0.00003078,0.00004900,-0.0000446
 2,-0.00043669,0.00014884,-0.00022418,0.00056419,-0.00126321,-0.0017522
 7,-0.00025378,-0.00154174,0.00393697,-0.03126151,-0.21115416,0.1495597
 4,0.00000362,-0.00000230,0.00000053,-0.00000056,0.00000120,0.00000099,
 -0.00000286,0.00000112,0.00000236,0.00000102,-0.00000280,0.00000427,0.
 00000347,-0.00000026,-0.00000018,-0.00000005,-0.00000008,-0.00000462,-
 0.00000030,-0.00000073,-0.00000169,0.00000066,-0.00000173,-0.00000065,
 -0.00000013,0.00000120,0.00000118,-0.00000856,-0.00001550,-0.00000510,
 -0.00045409,-0.00009321,-0.00043519,-0.00000677,0.00000291,-0.00002001
 ,0.00000127,-0.00000577,0.00000201,-0.00000219,0.00000100,0.00000061,-
 0.00000135,-0.00000183,-0.00000354,0.00000183,0.00000190,-0.00000063,-
 0.00000454,0.00000395,0.00000191,0.00000438,0.00000414,-0.00000519,0.0
 0000080,-0.00000512,0.00000044,-0.00000337,0.00000456,-0.00000003,0.00
 000177,-0.00000140,0.00000201,-0.00000096,-0.00000270,-0.00000440,0.00
 000131,-0.00000082,0.00000426,-0.00000287,-0.00000536,0.00004272,-0.00
 023582,-0.00044197,0.00046405,-0.00003984,-0.00035754,-0.00034343,0.00
 000003,0.00000147,0.00000049,-0.00000059,0.00000314,0.00000147,0.00000
 203,0.00001074,0.00000971,-0.00022959,0.00002406,0.00015149,0.03692025
 ,0.21762620,0.00002132,0.00001918,0.00001566,0.00000054,-0.00004385,-0
 .00002809,0.00000796,0.00000896,-0.00000102,0.00000566,0.00001724,-0.0
 0001031,0.00023768,-0.00012198,-0.00015665,-0.00005473,-0.00032568,0.0
 0004925,-0.00008858,0.00026830,0.00039326,-0.00027084,0.00095740,-0.00
 001890,-0.00034540,-0.00026787,0.00016546,0.00010543,0.00031371,0.0000
 5250,0.00007064,-0.00003184,-0.00002673,-0.00001346,0.00000958,0.00000
 669,-0.00003354,-0.00002698,0.00000811,-0.00001025,-0.00000466,-0.0000
 0072,0.00000275,-0.00000020,-0.00000035,0.00000599,-0.00000594,0.00000
 104,0.00000410,-0.00000477,-0.00000451,0.00002389,-0.00007579,-0.00003
 249,0.00006941,0.00009148,0.00001655,0.00023328,0.00000682,-0.00008051
 ,-0.00030721,-0.00302934,-0.00262584,0.00389663,0.00913436,-0.00237152
 ,-0.00194454,0.00300324,0.00359709,0.00001883,-0.00083699,-0.00048601,
 0.00072732,0.00262421,0.00488405,0.00043073,0.00011309,-0.00006317,-0.
 00009237,0.00016498,-0.00042642,0.00005784,0.00004349,0.00010228,-0.00
 007126,-0.00000999,-0.00002217,0.00006100,-0.00000813,0.00005347,0.000
 01416,-0.00001058,-0.00003755,0.00000065,0.00000397,-0.00001679,0.0000
 0715,-0.00002405,0.00002192,-0.00003610,0.00003742,0.00000252,0.000011
 30,-0.00001995,-0.00000248,0.00000940,-0.00000442,-0.00000272,0.000009
 21,-0.00000740,0.00000343,0.00000619,-0.00000442,-0.00000191,0.0000056
 8,0.00000997,-0.00002900,-0.00002078,0.00006175,0.00007725,0.00006631,
 -0.00004827,0.00002572,0.00034548,-0.00019511,-0.00001003,-0.00058591,
 -0.00183763,-0.00188483,-0.00022681,0.00499350,-0.00061141,0.02908344,
 0.14901979,-0.16301148,-0.00000253,-0.00000688,0.00000515,0.00000952,0
 .00001865,-0.00000844,-0.00000793,-0.00000080,0.00000465,-0.00000232,-
 0.00001116,0.00000963,0.00001566,0.00001399,-0.00000169,-0.00000598,-0
 .00000513,-0.00001128,-0.00000640,-0.00000267,-0.00000325,-0.00000642,
 -0.00000493,-0.00000300,0.00001223,0.00001450,0.00000579,-0.00001546,-
 0.00001957,0.00001700,-0.00010135,-0.00024443,-0.00075092,0.00000857,-
 0.00000703,-0.00000757,0.00000157,0.00000062,0.00000980,0.00000127,-0.
 00000228,-0.00000116,-0.00000380,0.00000124,-0.00000434,0.00000081,-0.
 00000056,0.00000435,0.00000128,-0.00000095,-0.00000386,0.00000268,0.00
 000395,-0.00000008,-0.00000089,-0.00000214,0.00000209,0.00000306,-0.00
 000188,0.00000010,-0.00000279,-0.00000010,-0.00000022,-0.00000014,0.00
 000234,-0.00000023,0.00000501,-0.00000678,-0.00000486,-0.00001588,-0.0
 0004612,-0.00002304,0.00016259,0.00038918,-0.00014374,-0.00001086,-0.0
 0037168,-0.00052042,-0.00000027,0.00000003,0.00000262,0.00000037,0.000
 00163,0.00000425,-0.00000209,0.00000964,0.00001437,0.00021951,0.000118
 59,0.00008549,-0.03169723,-0.16379585,0.16381020\\-0.00000113,0.000001
 18,-0.00000450,-0.00000130,0.00000096,0.00000170,-0.00000190,-0.000002
 54,-0.00000273,0.00000128,-0.00000017,-0.00000151,-0.00000059,0.000001
 48,0.00000681,0.00000206,-0.00000023,-0.00000315,0.00000072,-0.0000004
 5,0.00000007,0.00000182,-0.00000112,-0.00000447,-0.00000357,0.00000836
 ,0.00000085,0.00000054,-0.00000357,-0.00000084,-0.00000228,-0.00000970
 ,0.00000093,-0.00000135,0.00000507,-0.00000013,0.00000011,-0.00000322,
 0.00000044,0.00000060,-0.00000093,0.00000057,0.00000212,-0.00000059,0.
 00000098,-0.00000081,-0.00000067,0.00000006,-0.00000073,0.00000087,0.0
 0000024,0.00000033,0.00000169,-0.00000152,-0.00000058,0.00000123,0.000
 00039,0.00000380,0.00000238,-0.00000099,-0.00000300,-0.00000201,0.0000
 0516,0.00000762,0.00000385,-0.00000394,-0.00000534,-0.00000296,0.00000
 179,0.00000051,0.00000254,-0.00000142,0.00000179,0.00000238,-0.0000017
 9,-0.00000571,0.00000175,-0.00000120,0.00000730,-0.00000253,0.00000187
 ,-0.00000071,0.00000164,-0.00000075,-0.00000210,0.00000176,-0.00000088
 ,0.00000134,-0.00000201,0.00000152,0.00000237,0.00000155,-0.00000175,0
 .00000018,0.00000025,0.00000014,0.00000162,-0.00000133,0.00000148,-0.0
 0000330,0.00000242,-0.00000010,0.00000140,-0.00000057,0.00000021,0.000
 00097,-0.00000131,-0.00000019,0.00000018,-0.00000108,-0.00000001,-0.00
 000050,0.00000063,-0.00000100,0.00000013,-0.00000177,0.00000106,-0.000
 00004,0.00000045,-0.00000004,0.00000020,-0.00000172,0.00000117,-0.0000
 0131,-0.00000171,0.00000218,-0.00000426,0.00000227,-0.00000089,0.00000
 282,-0.00000398,0.00000277,-0.00000590,0.00000010,0.00000061,0.0000004
 5,-0.00000142,0.00000029,0.00000058,0.00000102,0.00000003,0.00000019,-
 0.00000026,0.00000091,-0.00000036,-0.00000187,-0.00000026,0.00000056,0
 .00000008,-0.00000073,0.00000081,0.00000052,0.00000109,0.00000061,-0.0
 0000011,0.00000009,-0.00000006,0.00000209,0.00000088,-0.00000021,-0.00
 000058,0.00000045,-0.00000016,0.00000269,-0.00000081,0.00000031,0.0000
 0144,0.00000018,-0.00000050,-0.00000011,-0.00000221,-0.00000105,0.0000
 0024,0.00000031,0.00000128,0.00000052,-0.00000079,0.00000014,-0.000001
 09,-0.00000063,0.00000008,-0.00000009,-0.00000056,-0.00000015,0.000000
 37,0.00000089,0.00000015,0.00000002,0.00000066,-0.00000055,-0.00000035
 ,0.00000112,0.00000002,-0.00000008,-0.00000060,-0.00000085,0.00000014,
 -0.00000004,0.00000033,0.00000061,-0.00000052,0.00000077,-0.00000088,0
 .00000009,0.00000097,-0.00000111,0.00000030,0.00000105,0.00000015,0.00
 000023,0.00000035,-0.00000045,0.00000070,-0.00000077,-0.00000074,0.000
 00066,-0.00000029,0.00000021,-0.00000013,0.00000012,0.00000030,-0.0000
 0028,0.00000042,-0.00000012,-0.00000027,0.00000037,0.00000020,-0.00000
 025\\\@
 The archive entry for this job was punched.


 ... THIS SEEMS PLAINLY ABSURD; BUT WHOEVER WISHES TO BECOME A 
 PHILOSOPHER MUST LEARN NOT TO BE FRIGHTENED BY ABSURDITIES.

                          -- BERTRAND RUSSELL
 Job cpu time:       7 days 17 hours 36 minutes 50.5 seconds.
 Elapsed time:       0 days  7 hours 16 minutes  3.8 seconds.
 File lengths (MBytes):  RWF=   8320 Int=      0 D2E=      0 Chk=    111 Scr=      1
 Normal termination of Gaussian 16 at Wed Dec  6 14:02:19 2023.
