 Entering Gaussian System, Link 0=g16
 Input=/home/exlonk/in_progress/3839.inp
 Output=/home/exlonk/in_progress/3839.log
 Initial command:
 /opt/gaussian/g16-c01/g16/l1.exe "/lustre/tmp/slurm/2182603/Gau-474838.inp" -scrdir="/lustre/tmp/slurm/2182603/"
 Default CPUs for threads: 0-4,7-8,12-14,18-20,24-28,31-33,37-39,43-44
 Default is to use a total of  26 processors:
                               26 via shared-memory
                                1 via Linda
 Entering Link 1 = /opt/gaussian/g16-c01/g16/l1.exe PID=    474839.
  
 Copyright (c) 1988-2019, Gaussian, Inc.  All Rights Reserved.
  
 This is part of the Gaussian(R) 16 program.  It is based on
 the Gaussian(R) 09 system (copyright 2009, Gaussian, Inc.),
 the Gaussian(R) 03 system (copyright 2003, Gaussian, Inc.),
 the Gaussian(R) 98 system (copyright 1998, Gaussian, Inc.),
 the Gaussian(R) 94 system (copyright 1995, Gaussian, Inc.),
 the Gaussian 92(TM) system (copyright 1992, Gaussian, Inc.),
 the Gaussian 90(TM) system (copyright 1990, Gaussian, Inc.),
 the Gaussian 88(TM) system (copyright 1988, Gaussian, Inc.),
 the Gaussian 86(TM) system (copyright 1986, Carnegie Mellon
 University), and the Gaussian 82(TM) system (copyright 1983,
 Carnegie Mellon University). Gaussian is a federally registered
 trademark of Gaussian, Inc.
  
 This software contains proprietary and confidential information,
 including trade secrets, belonging to Gaussian, Inc.
  
 This software is provided under written license and may be
 used, copied, transmitted, or stored only in accord with that
 written license.
  
 The following legend is applicable only to US Government
 contracts under FAR:
  
                    RESTRICTED RIGHTS LEGEND
  
 Use, reproduction and disclosure by the US Government is
 subject to restrictions as set forth in subparagraphs (a)
 and (c) of the Commercial Computer Software - Restricted
 Rights clause in FAR 52.227-19.
  
 Gaussian, Inc.
 340 Quinnipiac St., Bldg. 40, Wallingford CT 06492
  
  
 ---------------------------------------------------------------
 Warning -- This program may not be used in any manner that
 competes with the business of Gaussian, Inc. or will provide
 assistance to any competitor of Gaussian, Inc.  The licensee
 of this program is prohibited from giving any competitor of
 Gaussian, Inc. access to this program.  By using this program,
 the user acknowledges that Gaussian, Inc. is engaged in the
 business of creating and licensing software in the field of
 computational chemistry and represents and warrants to the
 licensee that it is not a competitor of Gaussian, Inc. and that
 it will not use this program in any manner prohibited above.
 ---------------------------------------------------------------
  

 Cite this work as:
 Gaussian 16, Revision C.01,
 M. J. Frisch, G. W. Trucks, H. B. Schlegel, G. E. Scuseria, 
 M. A. Robb, J. R. Cheeseman, G. Scalmani, V. Barone, 
 G. A. Petersson, H. Nakatsuji, X. Li, M. Caricato, A. V. Marenich, 
 J. Bloino, B. G. Janesko, R. Gomperts, B. Mennucci, H. P. Hratchian, 
 J. V. Ortiz, A. F. Izmaylov, J. L. Sonnenberg, D. Williams-Young, 
 F. Ding, F. Lipparini, F. Egidi, J. Goings, B. Peng, A. Petrone, 
 T. Henderson, D. Ranasinghe, V. G. Zakrzewski, J. Gao, N. Rega, 
 G. Zheng, W. Liang, M. Hada, M. Ehara, K. Toyota, R. Fukuda, 
 J. Hasegawa, M. Ishida, T. Nakajima, Y. Honda, O. Kitao, H. Nakai, 
 T. Vreven, K. Throssell, J. A. Montgomery, Jr., J. E. Peralta, 
 F. Ogliaro, M. J. Bearpark, J. J. Heyd, E. N. Brothers, K. N. Kudin, 
 V. N. Staroverov, T. A. Keith, R. Kobayashi, J. Normand, 
 K. Raghavachari, A. P. Rendell, J. C. Burant, S. S. Iyengar, 
 J. Tomasi, M. Cossi, J. M. Millam, M. Klene, C. Adamo, R. Cammi, 
 J. W. Ochterski, R. L. Martin, K. Morokuma, O. Farkas, 
 J. B. Foresman, and D. J. Fox, Gaussian, Inc., Wallingford CT, 2019.
 
 ******************************************
 Gaussian 16:  EM64L-G16RevC.01  3-Jul-2019
                 4-Dec-2023 
 ******************************************
 %nproc=26
 Will use up to   26 processors via shared memory.
 %mem=16GB
 %chk=/home/exlonk/in_progress/3839.chk
 ------------------------------
 #p MN15/6-311++G(d,p) opt freq
 ------------------------------
 1/18=20,19=15,26=3,38=1/1,3;
 2/9=110,12=2,17=6,18=5,40=1/2;
 3/5=4,6=6,7=1111,11=2,25=1,30=1,71=1,74=-73/1,2,3;
 4//1;
 5/5=2,38=5/2;
 6/7=2,8=2,9=2,10=2,28=1/1;
 7//1,2,3,16;
 1/18=20,19=15,26=3/3(2);
 2/9=110/2;
 99//99;
 2/9=110/2;
 3/5=4,6=6,7=1111,11=2,25=1,30=1,71=1,74=-73/1,2,3;
 4/5=5,16=3,69=1/1;
 5/5=2,38=5/2;
 7//1,2,3,16;
 1/18=20,19=15,26=3/3(-5);
 2/9=110/2;
 6/7=2,8=2,9=2,10=2,19=2,28=1/1;
 99/9=1/99;
 Leave Link    1 at Mon Dec  4 20:23:33 2023, MaxMem=  2147483648 cpu:              20.1 elap:               0.9
 (Enter /opt/gaussian/g16-c01/g16/l101.exe)
 ---------------
 name file: 3839
 ---------------
 Symbolic Z-matrix:
 Charge =  0 Multiplicity = 1
 C                    -3.61438  -3.78331  -3.20175 
 C                    -2.85301  -3.36137  -1.95469 
 C                    -3.70689  -2.46331  -1.0573 
 C                    -3.01841  -2.09209   0.26125 
 C                    -1.72423  -1.31357   0.09556 
 C                    -0.5587   -1.91538   0.39891 
 C                     0.75719  -1.28274   0.30308 
 C                     2.00112  -1.91909   0.58874 
 C                     2.1192   -3.27689   0.96458 
 C                     3.35493  -3.8692    1.24056 
 C                     4.53242  -3.12748   1.15235 
 C                     5.77851  -3.71056   1.42721 
 C                     6.94823  -2.96007   1.33479 
 C                     6.88567  -1.61802   0.96663 
 C                     5.65329  -1.00993   0.68634 
 C                     5.58735   0.33742   0.31646 
 C                     4.36061   0.93752   0.03829 
 C                     3.16688   0.19627   0.1246 
 C                     1.92312   0.81772  -0.16394 
 C                     1.53047   2.12299  -0.5431 
 C                     0.15964   2.15073  -0.69725 
 C                    -0.65709   3.30657  -1.05859 
 C                    -1.22373   3.4182   -2.33102 
 C                    -1.9825    4.54061  -2.67015 
 C                    -2.16703   5.56567  -1.74373 
 C                    -1.59078   5.47135  -0.47849 
 C                    -0.8335    4.34837  -0.13901 
 N                    -0.34163   0.86834  -0.41566 
 C                     0.75836   0.06641  -0.07688 
 P                    -1.9909    0.314    -0.49774 
 O                    -2.43241   0.65377  -1.89425 
 C                    -2.50019   1.28505   0.88996 
 C                    -3.52964   2.22256   0.70029 
 C                    -3.99726   3.00451   1.75733 
 C                    -3.44901   2.85501   3.02784 
 C                    -2.43635   1.92339   3.24136 
 C                    -1.96897   1.1414    2.18279 
 C                     3.19891  -1.17039   0.4969 
 C                     4.45924  -1.76826   0.77814 
 H                    -3.91325  -2.91141  -3.7923 
 H                    -4.51549  -4.34688  -2.93998 
 H                    -2.98626  -4.4212   -3.83152 
 H                    -2.54524  -4.25617  -1.40148 
 H                    -1.94144  -2.83697  -2.26163 
 H                    -3.98986  -1.55662  -1.60409 
 H                    -4.64353  -2.98227  -0.81713 
 H                    -3.71152  -1.49125   0.86298 
 H                    -2.84857  -3.00941   0.83977 
 H                    -0.58396  -2.94207   0.7477 
 H                     1.24395  -3.91472   1.04615 
 H                     3.38278  -4.91923   1.52336 
 H                     5.84671  -4.75717   1.71558 
 H                     7.90892  -3.42085   1.54905 
 H                     7.80982  -1.04816   0.89928 
 H                     6.49306   0.93485   0.23966 
 H                     4.34797   1.98583  -0.24836 
 H                     2.1807    2.97478  -0.69748 
 H                    -1.08583   2.62768  -3.06591 
 H                    -2.42851   4.61078  -3.65878 
 H                    -2.75749   6.43834  -2.00971 
 H                    -1.73035   6.26953   0.24535 
 H                    -0.39221   4.28378   0.85299 
 H                    -3.95844   2.35751  -0.29279 
 H                    -4.78478   3.7335    1.5843 
 H                    -3.81012   3.4654    3.85141 
 H                    -2.0079    1.80512   4.2336 
 H                    -1.17767   0.4211    2.37959 
 
 ITRead=  0  0  0  0  0  0  0  0  0  0  0  0  0  0  0  0  0  0  0  0
 ITRead=  0  0  0  0  0  0  0  0  0  0  0  0  0  0  0  0  0  0  0  0
 ITRead=  0  0  0  0  0  0  0  0  0  0  0  0  0  0  0  0  0  0  0  0
 ITRead=  0  0  0  0  0  0  0
 MicOpt= -1 -1 -1 -1 -1 -1 -1 -1 -1 -1 -1 -1 -1 -1 -1 -1 -1 -1 -1 -1
 MicOpt= -1 -1 -1 -1 -1 -1 -1 -1 -1 -1 -1 -1 -1 -1 -1 -1 -1 -1 -1 -1
 MicOpt= -1 -1 -1 -1 -1 -1 -1 -1 -1 -1 -1 -1 -1 -1 -1 -1 -1 -1 -1 -1
 MicOpt= -1 -1 -1 -1 -1 -1 -1
 NAtoms=     67 NQM=       67 NQMF=       0 NMMI=      0 NMMIF=      0
                NMic=       0 NMicF=      0.
                    Isotopes and Nuclear Properties:
 (Nuclear quadrupole moments (NQMom) in fm**2, nuclear magnetic moments (NMagM)
  in nuclear magnetons)

  Atom         1           2           3           4           5           6           7           8           9          10
 IAtWgt=          12          12          12          12          12          12          12          12          12          12
 AtmWgt=  12.0000000  12.0000000  12.0000000  12.0000000  12.0000000  12.0000000  12.0000000  12.0000000  12.0000000  12.0000000
 NucSpn=           0           0           0           0           0           0           0           0           0           0
 AtZEff=  -0.0000000  -0.0000000  -0.0000000  -0.0000000  -0.0000000  -0.0000000  -0.0000000  -0.0000000  -0.0000000  -0.0000000
 NQMom=    0.0000000   0.0000000   0.0000000   0.0000000   0.0000000   0.0000000   0.0000000   0.0000000   0.0000000   0.0000000
 NMagM=    0.0000000   0.0000000   0.0000000   0.0000000   0.0000000   0.0000000   0.0000000   0.0000000   0.0000000   0.0000000
 AtZNuc=   6.0000000   6.0000000   6.0000000   6.0000000   6.0000000   6.0000000   6.0000000   6.0000000   6.0000000   6.0000000

  Atom        11          12          13          14          15          16          17          18          19          20
 IAtWgt=          12          12          12          12          12          12          12          12          12          12
 AtmWgt=  12.0000000  12.0000000  12.0000000  12.0000000  12.0000000  12.0000000  12.0000000  12.0000000  12.0000000  12.0000000
 NucSpn=           0           0           0           0           0           0           0           0           0           0
 AtZEff=  -0.0000000  -0.0000000  -0.0000000  -0.0000000  -0.0000000  -0.0000000  -0.0000000  -0.0000000  -0.0000000  -0.0000000
 NQMom=    0.0000000   0.0000000   0.0000000   0.0000000   0.0000000   0.0000000   0.0000000   0.0000000   0.0000000   0.0000000
 NMagM=    0.0000000   0.0000000   0.0000000   0.0000000   0.0000000   0.0000000   0.0000000   0.0000000   0.0000000   0.0000000
 AtZNuc=   6.0000000   6.0000000   6.0000000   6.0000000   6.0000000   6.0000000   6.0000000   6.0000000   6.0000000   6.0000000

  Atom        21          22          23          24          25          26          27          28          29          30
 IAtWgt=          12          12          12          12          12          12          12          14          12          31
 AtmWgt=  12.0000000  12.0000000  12.0000000  12.0000000  12.0000000  12.0000000  12.0000000  14.0030740  12.0000000  30.9737634
 NucSpn=           0           0           0           0           0           0           0           2           0           1
 AtZEff=  -0.0000000  -0.0000000  -0.0000000  -0.0000000  -0.0000000  -0.0000000  -0.0000000  -0.0000000  -0.0000000  -0.0000000
 NQMom=    0.0000000   0.0000000   0.0000000   0.0000000   0.0000000   0.0000000   0.0000000   2.0440000   0.0000000   0.0000000
 NMagM=    0.0000000   0.0000000   0.0000000   0.0000000   0.0000000   0.0000000   0.0000000   0.4037610   0.0000000   1.1316000
 AtZNuc=   6.0000000   6.0000000   6.0000000   6.0000000   6.0000000   6.0000000   6.0000000   7.0000000   6.0000000  15.0000000

  Atom        31          32          33          34          35          36          37          38          39          40
 IAtWgt=          16          12          12          12          12          12          12          12          12           1
 AtmWgt=  15.9949146  12.0000000  12.0000000  12.0000000  12.0000000  12.0000000  12.0000000  12.0000000  12.0000000   1.0078250
 NucSpn=           0           0           0           0           0           0           0           0           0           1
 AtZEff=  -0.0000000  -0.0000000  -0.0000000  -0.0000000  -0.0000000  -0.0000000  -0.0000000  -0.0000000  -0.0000000  -0.0000000
 NQMom=    0.0000000   0.0000000   0.0000000   0.0000000   0.0000000   0.0000000   0.0000000   0.0000000   0.0000000   0.0000000
 NMagM=    0.0000000   0.0000000   0.0000000   0.0000000   0.0000000   0.0000000   0.0000000   0.0000000   0.0000000   2.7928460
 AtZNuc=   8.0000000   6.0000000   6.0000000   6.0000000   6.0000000   6.0000000   6.0000000   6.0000000   6.0000000   1.0000000

  Atom        41          42          43          44          45          46          47          48          49          50
 IAtWgt=           1           1           1           1           1           1           1           1           1           1
 AtmWgt=   1.0078250   1.0078250   1.0078250   1.0078250   1.0078250   1.0078250   1.0078250   1.0078250   1.0078250   1.0078250
 NucSpn=           1           1           1           1           1           1           1           1           1           1
 AtZEff=  -0.0000000  -0.0000000  -0.0000000  -0.0000000  -0.0000000  -0.0000000  -0.0000000  -0.0000000  -0.0000000  -0.0000000
 NQMom=    0.0000000   0.0000000   0.0000000   0.0000000   0.0000000   0.0000000   0.0000000   0.0000000   0.0000000   0.0000000
 NMagM=    2.7928460   2.7928460   2.7928460   2.7928460   2.7928460   2.7928460   2.7928460   2.7928460   2.7928460   2.7928460
 AtZNuc=   1.0000000   1.0000000   1.0000000   1.0000000   1.0000000   1.0000000   1.0000000   1.0000000   1.0000000   1.0000000

  Atom        51          52          53          54          55          56          57          58          59          60
 IAtWgt=           1           1           1           1           1           1           1           1           1           1
 AtmWgt=   1.0078250   1.0078250   1.0078250   1.0078250   1.0078250   1.0078250   1.0078250   1.0078250   1.0078250   1.0078250
 NucSpn=           1           1           1           1           1           1           1           1           1           1
 AtZEff=  -0.0000000  -0.0000000  -0.0000000  -0.0000000  -0.0000000  -0.0000000  -0.0000000  -0.0000000  -0.0000000  -0.0000000
 NQMom=    0.0000000   0.0000000   0.0000000   0.0000000   0.0000000   0.0000000   0.0000000   0.0000000   0.0000000   0.0000000
 NMagM=    2.7928460   2.7928460   2.7928460   2.7928460   2.7928460   2.7928460   2.7928460   2.7928460   2.7928460   2.7928460
 AtZNuc=   1.0000000   1.0000000   1.0000000   1.0000000   1.0000000   1.0000000   1.0000000   1.0000000   1.0000000   1.0000000

  Atom        61          62          63          64          65          66          67
 IAtWgt=           1           1           1           1           1           1           1
 AtmWgt=   1.0078250   1.0078250   1.0078250   1.0078250   1.0078250   1.0078250   1.0078250
 NucSpn=           1           1           1           1           1           1           1
 AtZEff=  -0.0000000  -0.0000000  -0.0000000  -0.0000000  -0.0000000  -0.0000000  -0.0000000
 NQMom=    0.0000000   0.0000000   0.0000000   0.0000000   0.0000000   0.0000000   0.0000000
 NMagM=    2.7928460   2.7928460   2.7928460   2.7928460   2.7928460   2.7928460   2.7928460
 AtZNuc=   1.0000000   1.0000000   1.0000000   1.0000000   1.0000000   1.0000000   1.0000000
 Leave Link  101 at Mon Dec  4 20:23:34 2023, MaxMem=  2147483648 cpu:              11.1 elap:               0.6
 (Enter /opt/gaussian/g16-c01/g16/l103.exe)

 GradGradGradGradGradGradGradGradGradGradGradGradGradGradGradGradGradGrad
 Berny optimization.
 Initialization pass.
                           ----------------------------
                           !    Initial Parameters    !
                           ! (Angstroms and Degrees)  !
 --------------------------                            --------------------------
 ! Name  Definition              Value          Derivative Info.                !
 --------------------------------------------------------------------------------
 ! R1    R(1,2)                  1.5208         estimate D2E/DX2                !
 ! R2    R(1,40)                 1.0947         estimate D2E/DX2                !
 ! R3    R(1,41)                 1.0946         estimate D2E/DX2                !
 ! R4    R(1,42)                 1.0946         estimate D2E/DX2                !
 ! R5    R(2,3)                  1.53           estimate D2E/DX2                !
 ! R6    R(2,43)                 1.0961         estimate D2E/DX2                !
 ! R7    R(2,44)                 1.0955         estimate D2E/DX2                !
 ! R8    R(3,4)                  1.5331         estimate D2E/DX2                !
 ! R9    R(3,45)                 1.096          estimate D2E/DX2                !
 ! R10   R(3,46)                 1.0974         estimate D2E/DX2                !
 ! R11   R(4,5)                  1.5194         estimate D2E/DX2                !
 ! R12   R(4,47)                 1.097          estimate D2E/DX2                !
 ! R13   R(4,48)                 1.0977         estimate D2E/DX2                !
 ! R14   R(5,6)                  1.3463         estimate D2E/DX2                !
 ! R15   R(5,30)                 1.7527         estimate D2E/DX2                !
 ! R16   R(6,7)                  1.4632         estimate D2E/DX2                !
 ! R17   R(6,49)                 1.0846         estimate D2E/DX2                !
 ! R18   R(7,8)                  1.4262         estimate D2E/DX2                !
 ! R19   R(7,29)                 1.4016         estimate D2E/DX2                !
 ! R20   R(8,9)                  1.4138         estimate D2E/DX2                !
 ! R21   R(8,38)                 1.4155         estimate D2E/DX2                !
 ! R22   R(9,10)                 1.3979         estimate D2E/DX2                !
 ! R23   R(9,50)                 1.0861         estimate D2E/DX2                !
 ! R24   R(10,11)                1.3944         estimate D2E/DX2                !
 ! R25   R(10,51)                1.0878         estimate D2E/DX2                !
 ! R26   R(11,12)                1.403          estimate D2E/DX2                !
 ! R27   R(11,39)                1.4117         estimate D2E/DX2                !
 ! R28   R(12,13)                1.3928         estimate D2E/DX2                !
 ! R29   R(12,52)                1.0878         estimate D2E/DX2                !
 ! R30   R(13,14)                1.393          estimate D2E/DX2                !
 ! R31   R(13,53)                1.0868         estimate D2E/DX2                !
 ! R32   R(14,15)                1.4025         estimate D2E/DX2                !
 ! R33   R(14,54)                1.0878         estimate D2E/DX2                !
 ! R34   R(15,16)                1.3988         estimate D2E/DX2                !
 ! R35   R(15,39)                1.4175         estimate D2E/DX2                !
 ! R36   R(16,17)                1.3937         estimate D2E/DX2                !
 ! R37   R(16,55)                1.0877         estimate D2E/DX2                !
 ! R38   R(17,18)                1.4078         estimate D2E/DX2                !
 ! R39   R(17,56)                1.0869         estimate D2E/DX2                !
 ! R40   R(18,19)                1.42           estimate D2E/DX2                !
 ! R41   R(18,38)                1.4168         estimate D2E/DX2                !
 ! R42   R(19,20)                1.4148         estimate D2E/DX2                !
 ! R43   R(19,29)                1.3888         estimate D2E/DX2                !
 ! R44   R(20,21)                1.3798         estimate D2E/DX2                !
 ! R45   R(20,57)                1.0827         estimate D2E/DX2                !
 ! R46   R(21,22)                1.4607         estimate D2E/DX2                !
 ! R47   R(21,28)                1.4054         estimate D2E/DX2                !
 ! R48   R(22,23)                1.3974         estimate D2E/DX2                !
 ! R49   R(22,27)                1.4008         estimate D2E/DX2                !
 ! R50   R(23,24)                1.3966         estimate D2E/DX2                !
 ! R51   R(23,58)                1.0881         estimate D2E/DX2                !
 ! R52   R(24,25)                1.3939         estimate D2E/DX2                !
 ! R53   R(24,59)                1.0868         estimate D2E/DX2                !
 ! R54   R(25,26)                1.3935         estimate D2E/DX2                !
 ! R55   R(25,60)                1.0867         estimate D2E/DX2                !
 ! R56   R(26,27)                1.3964         estimate D2E/DX2                !
 ! R57   R(26,61)                1.0865         estimate D2E/DX2                !
 ! R58   R(27,62)                1.0876         estimate D2E/DX2                !
 ! R59   R(28,29)                1.4028         estimate D2E/DX2                !
 ! R60   R(28,30)                1.7419         estimate D2E/DX2                !
 ! R61   R(30,31)                1.5035         estimate D2E/DX2                !
 ! R62   R(30,32)                1.7686         estimate D2E/DX2                !
 ! R63   R(32,33)                1.4052         estimate D2E/DX2                !
 ! R64   R(32,37)                1.4051         estimate D2E/DX2                !
 ! R65   R(33,34)                1.3955         estimate D2E/DX2                !
 ! R66   R(33,63)                1.0901         estimate D2E/DX2                !
 ! R67   R(34,35)                1.3918         estimate D2E/DX2                !
 ! R68   R(34,64)                1.087          estimate D2E/DX2                !
 ! R69   R(35,36)                1.3925         estimate D2E/DX2                !
 ! R70   R(35,65)                1.0868         estimate D2E/DX2                !
 ! R71   R(36,37)                1.3966         estimate D2E/DX2                !
 ! R72   R(36,66)                1.0872         estimate D2E/DX2                !
 ! R73   R(37,67)                1.088          estimate D2E/DX2                !
 ! R74   R(38,39)                1.423          estimate D2E/DX2                !
 ! A1    A(2,1,40)             110.9822         estimate D2E/DX2                !
 ! A2    A(2,1,41)             111.032          estimate D2E/DX2                !
 ! A3    A(2,1,42)             110.2546         estimate D2E/DX2                !
 ! A4    A(40,1,41)            108.3213         estimate D2E/DX2                !
 ! A5    A(40,1,42)            108.0877         estimate D2E/DX2                !
 ! A6    A(41,1,42)            108.0564         estimate D2E/DX2                !
 ! A7    A(1,2,3)              111.3708         estimate D2E/DX2                !
 ! A8    A(1,2,43)             109.1437         estimate D2E/DX2                !
 ! A9    A(1,2,44)             108.6405         estimate D2E/DX2                !
 ! A10   A(3,2,43)             109.8677         estimate D2E/DX2                !
 ! A11   A(3,2,44)             110.3493         estimate D2E/DX2                !
 ! A12   A(43,2,44)            107.3695         estimate D2E/DX2                !
 ! A13   A(2,3,4)              113.3253         estimate D2E/DX2                !
 ! A14   A(2,3,45)             109.698          estimate D2E/DX2                !
 ! A15   A(2,3,46)             109.0942         estimate D2E/DX2                !
 ! A16   A(4,3,45)             110.1647         estimate D2E/DX2                !
 ! A17   A(4,3,46)             108.0336         estimate D2E/DX2                !
 ! A18   A(45,3,46)            106.2626         estimate D2E/DX2                !
 ! A19   A(3,4,5)              114.3814         estimate D2E/DX2                !
 ! A20   A(3,4,47)             108.7015         estimate D2E/DX2                !
 ! A21   A(3,4,48)             108.687          estimate D2E/DX2                !
 ! A22   A(5,4,47)             108.5023         estimate D2E/DX2                !
 ! A23   A(5,4,48)             110.7244         estimate D2E/DX2                !
 ! A24   A(47,4,48)            105.4474         estimate D2E/DX2                !
 ! A25   A(4,5,6)              118.933          estimate D2E/DX2                !
 ! A26   A(4,5,30)             112.5272         estimate D2E/DX2                !
 ! A27   A(6,5,30)             128.5395         estimate D2E/DX2                !
 ! A28   A(5,6,7)              124.7863         estimate D2E/DX2                !
 ! A29   A(5,6,49)             118.3864         estimate D2E/DX2                !
 ! A30   A(7,6,49)             116.8259         estimate D2E/DX2                !
 ! A31   A(6,7,8)              125.336          estimate D2E/DX2                !
 ! A32   A(6,7,29)             115.7648         estimate D2E/DX2                !
 ! A33   A(8,7,29)             118.8858         estimate D2E/DX2                !
 ! A34   A(7,8,9)              123.6851         estimate D2E/DX2                !
 ! A35   A(7,8,38)             119.2789         estimate D2E/DX2                !
 ! A36   A(9,8,38)             117.036          estimate D2E/DX2                !
 ! A37   A(8,9,10)             122.226          estimate D2E/DX2                !
 ! A38   A(8,9,50)             121.1098         estimate D2E/DX2                !
 ! A39   A(10,9,50)            116.663          estimate D2E/DX2                !
 ! A40   A(9,10,11)            120.5711         estimate D2E/DX2                !
 ! A41   A(9,10,51)            118.8794         estimate D2E/DX2                !
 ! A42   A(11,10,51)           120.5494         estimate D2E/DX2                !
 ! A43   A(10,11,12)           121.101          estimate D2E/DX2                !
 ! A44   A(10,11,39)           119.022          estimate D2E/DX2                !
 ! A45   A(12,11,39)           119.8769         estimate D2E/DX2                !
 ! A46   A(11,12,13)           120.5954         estimate D2E/DX2                !
 ! A47   A(11,12,52)           120.4987         estimate D2E/DX2                !
 ! A48   A(13,12,52)           118.9059         estimate D2E/DX2                !
 ! A49   A(12,13,14)           119.9286         estimate D2E/DX2                !
 ! A50   A(12,13,53)           120.0548         estimate D2E/DX2                !
 ! A51   A(14,13,53)           120.0166         estimate D2E/DX2                !
 ! A52   A(13,14,15)           120.6619         estimate D2E/DX2                !
 ! A53   A(13,14,54)           118.875          estimate D2E/DX2                !
 ! A54   A(15,14,54)           120.4631         estimate D2E/DX2                !
 ! A55   A(14,15,16)           120.7909         estimate D2E/DX2                !
 ! A56   A(14,15,39)           119.6888         estimate D2E/DX2                !
 ! A57   A(16,15,39)           119.5203         estimate D2E/DX2                !
 ! A58   A(15,16,17)           120.5998         estimate D2E/DX2                !
 ! A59   A(15,16,55)           120.5627         estimate D2E/DX2                !
 ! A60   A(17,16,55)           118.8374         estimate D2E/DX2                !
 ! A61   A(16,17,18)           120.4914         estimate D2E/DX2                !
 ! A62   A(16,17,56)           118.5673         estimate D2E/DX2                !
 ! A63   A(18,17,56)           120.9411         estimate D2E/DX2                !
 ! A64   A(17,18,19)           119.9878         estimate D2E/DX2                !
 ! A65   A(17,18,38)           120.3202         estimate D2E/DX2                !
 ! A66   A(19,18,38)           119.692          estimate D2E/DX2                !
 ! A67   A(18,19,20)           134.5314         estimate D2E/DX2                !
 ! A68   A(18,19,29)           119.0198         estimate D2E/DX2                !
 ! A69   A(20,19,29)           106.4475         estimate D2E/DX2                !
 ! A70   A(19,20,21)           108.9184         estimate D2E/DX2                !
 ! A71   A(19,20,57)           126.6823         estimate D2E/DX2                !
 ! A72   A(21,20,57)           124.3987         estimate D2E/DX2                !
 ! A73   A(20,21,22)           126.8035         estimate D2E/DX2                !
 ! A74   A(20,21,28)           108.2791         estimate D2E/DX2                !
 ! A75   A(22,21,28)           124.903          estimate D2E/DX2                !
 ! A76   A(21,22,23)           121.0118         estimate D2E/DX2                !
 ! A77   A(21,22,27)           119.7716         estimate D2E/DX2                !
 ! A78   A(23,22,27)           119.1641         estimate D2E/DX2                !
 ! A79   A(22,23,24)           120.3725         estimate D2E/DX2                !
 ! A80   A(22,23,58)           120.3689         estimate D2E/DX2                !
 ! A81   A(24,23,58)           119.2565         estimate D2E/DX2                !
 ! A82   A(23,24,25)           120.1014         estimate D2E/DX2                !
 ! A83   A(23,24,59)           119.7167         estimate D2E/DX2                !
 ! A84   A(25,24,59)           120.1818         estimate D2E/DX2                !
 ! A85   A(24,25,26)           119.9294         estimate D2E/DX2                !
 ! A86   A(24,25,60)           119.9862         estimate D2E/DX2                !
 ! A87   A(26,25,60)           120.0842         estimate D2E/DX2                !
 ! A88   A(25,26,27)           119.9634         estimate D2E/DX2                !
 ! A89   A(25,26,61)           120.1364         estimate D2E/DX2                !
 ! A90   A(27,26,61)           119.9002         estimate D2E/DX2                !
 ! A91   A(22,27,26)           120.4529         estimate D2E/DX2                !
 ! A92   A(22,27,62)           120.2313         estimate D2E/DX2                !
 ! A93   A(26,27,62)           119.3106         estimate D2E/DX2                !
 ! A94   A(21,28,29)           106.8782         estimate D2E/DX2                !
 ! A95   A(21,28,30)           128.2188         estimate D2E/DX2                !
 ! A96   A(29,28,30)           124.8835         estimate D2E/DX2                !
 ! A97   A(7,29,19)            122.576          estimate D2E/DX2                !
 ! A98   A(7,29,28)            127.957          estimate D2E/DX2                !
 ! A99   A(19,29,28)           109.4666         estimate D2E/DX2                !
 ! A100  A(5,30,28)             97.7877         estimate D2E/DX2                !
 ! A101  A(5,30,31)            124.6752         estimate D2E/DX2                !
 ! A102  A(5,30,32)            106.7413         estimate D2E/DX2                !
 ! A103  A(28,30,31)           104.4707         estimate D2E/DX2                !
 ! A104  A(28,30,32)            93.4942         estimate D2E/DX2                !
 ! A105  A(31,30,32)           121.3418         estimate D2E/DX2                !
 ! A106  A(30,32,33)           118.1213         estimate D2E/DX2                !
 ! A107  A(30,32,37)           123.8446         estimate D2E/DX2                !
 ! A108  A(33,32,37)           117.9938         estimate D2E/DX2                !
 ! A109  A(32,33,34)           121.1357         estimate D2E/DX2                !
 ! A110  A(32,33,63)           119.5863         estimate D2E/DX2                !
 ! A111  A(34,33,63)           119.2666         estimate D2E/DX2                !
 ! A112  A(33,34,35)           119.9514         estimate D2E/DX2                !
 ! A113  A(33,34,64)           119.8666         estimate D2E/DX2                !
 ! A114  A(35,34,64)           120.1809         estimate D2E/DX2                !
 ! A115  A(34,35,36)           119.888          estimate D2E/DX2                !
 ! A116  A(34,35,65)           120.034          estimate D2E/DX2                !
 ! A117  A(36,35,65)           120.0779         estimate D2E/DX2                !
 ! A118  A(35,36,37)           120.1164         estimate D2E/DX2                !
 ! A119  A(35,36,66)           119.9537         estimate D2E/DX2                !
 ! A120  A(37,36,66)           119.9299         estimate D2E/DX2                !
 ! A121  A(32,37,36)           120.9064         estimate D2E/DX2                !
 ! A122  A(32,37,67)           120.6033         estimate D2E/DX2                !
 ! A123  A(36,37,67)           118.4891         estimate D2E/DX2                !
 ! A124  A(8,38,18)            120.5387         estimate D2E/DX2                !
 ! A125  A(8,38,39)            120.957          estimate D2E/DX2                !
 ! A126  A(18,38,39)           118.5041         estimate D2E/DX2                !
 ! A127  A(11,39,15)           119.2484         estimate D2E/DX2                !
 ! A128  A(11,39,38)           120.1875         estimate D2E/DX2                !
 ! A129  A(15,39,38)           120.5641         estimate D2E/DX2                !
 ! D1    D(40,1,2,3)            60.0605         estimate D2E/DX2                !
 ! D2    D(40,1,2,43)         -178.4634         estimate D2E/DX2                !
 ! D3    D(40,1,2,44)          -61.6811         estimate D2E/DX2                !
 ! D4    D(41,1,2,3)           -60.4808         estimate D2E/DX2                !
 ! D5    D(41,1,2,43)           60.9953         estimate D2E/DX2                !
 ! D6    D(41,1,2,44)          177.7776         estimate D2E/DX2                !
 ! D7    D(42,1,2,3)           179.7934         estimate D2E/DX2                !
 ! D8    D(42,1,2,43)          -58.7305         estimate D2E/DX2                !
 ! D9    D(42,1,2,44)           58.0517         estimate D2E/DX2                !
 ! D10   D(1,2,3,4)            175.9149         estimate D2E/DX2                !
 ! D11   D(1,2,3,45)           -60.5049         estimate D2E/DX2                !
 ! D12   D(1,2,3,46)            55.5159         estimate D2E/DX2                !
 ! D13   D(43,2,3,4)            54.8612         estimate D2E/DX2                !
 ! D14   D(43,2,3,45)          178.4414         estimate D2E/DX2                !
 ! D15   D(43,2,3,46)          -65.5379         estimate D2E/DX2                !
 ! D16   D(44,2,3,4)           -63.3407         estimate D2E/DX2                !
 ! D17   D(44,2,3,45)           60.2395         estimate D2E/DX2                !
 ! D18   D(44,2,3,46)          176.2602         estimate D2E/DX2                !
 ! D19   D(2,3,4,5)             61.2705         estimate D2E/DX2                !
 ! D20   D(2,3,4,47)          -177.3127         estimate D2E/DX2                !
 ! D21   D(2,3,4,48)           -63.0235         estimate D2E/DX2                !
 ! D22   D(45,3,4,5)           -62.0536         estimate D2E/DX2                !
 ! D23   D(45,3,4,47)           59.3632         estimate D2E/DX2                !
 ! D24   D(45,3,4,48)          173.6525         estimate D2E/DX2                !
 ! D25   D(46,3,4,5)          -177.7305         estimate D2E/DX2                !
 ! D26   D(46,3,4,47)          -56.3137         estimate D2E/DX2                !
 ! D27   D(46,3,4,48)           57.9755         estimate D2E/DX2                !
 ! D28   D(3,4,5,6)           -110.1506         estimate D2E/DX2                !
 ! D29   D(3,4,5,30)            69.6363         estimate D2E/DX2                !
 ! D30   D(47,4,5,6)           128.3231         estimate D2E/DX2                !
 ! D31   D(47,4,5,30)          -51.89           estimate D2E/DX2                !
 ! D32   D(48,4,5,6)            13.0512         estimate D2E/DX2                !
 ! D33   D(48,4,5,30)         -167.1619         estimate D2E/DX2                !
 ! D34   D(4,5,6,7)           -179.2175         estimate D2E/DX2                !
 ! D35   D(4,5,6,49)             0.3269         estimate D2E/DX2                !
 ! D36   D(30,5,6,7)             1.0341         estimate D2E/DX2                !
 ! D37   D(30,5,6,49)         -179.4214         estimate D2E/DX2                !
 ! D38   D(4,5,30,28)          175.6363         estimate D2E/DX2                !
 ! D39   D(4,5,30,31)          -70.7047         estimate D2E/DX2                !
 ! D40   D(4,5,30,32)           79.5874         estimate D2E/DX2                !
 ! D41   D(6,5,30,28)           -4.6022         estimate D2E/DX2                !
 ! D42   D(6,5,30,31)          109.0569         estimate D2E/DX2                !
 ! D43   D(6,5,30,32)         -100.6511         estimate D2E/DX2                !
 ! D44   D(5,6,7,8)           -178.3184         estimate D2E/DX2                !
 ! D45   D(5,6,7,29)             3.0322         estimate D2E/DX2                !
 ! D46   D(49,6,7,8)             2.1307         estimate D2E/DX2                !
 ! D47   D(49,6,7,29)         -176.5186         estimate D2E/DX2                !
 ! D48   D(6,7,8,9)              2.1716         estimate D2E/DX2                !
 ! D49   D(6,7,8,38)          -177.8704         estimate D2E/DX2                !
 ! D50   D(29,7,8,9)          -179.2176         estimate D2E/DX2                !
 ! D51   D(29,7,8,38)            0.7403         estimate D2E/DX2                !
 ! D52   D(6,7,29,19)          177.5691         estimate D2E/DX2                !
 ! D53   D(6,7,29,28)           -2.1926         estimate D2E/DX2                !
 ! D54   D(8,7,29,19)           -1.1725         estimate D2E/DX2                !
 ! D55   D(8,7,29,28)          179.0657         estimate D2E/DX2                !
 ! D56   D(7,8,9,10)          -179.8639         estimate D2E/DX2                !
 ! D57   D(7,8,9,50)             0.5479         estimate D2E/DX2                !
 ! D58   D(38,8,9,10)            0.1773         estimate D2E/DX2                !
 ! D59   D(38,8,9,50)         -179.411          estimate D2E/DX2                !
 ! D60   D(7,8,38,18)           -0.0483         estimate D2E/DX2                !
 ! D61   D(7,8,38,39)          179.7994         estimate D2E/DX2                !
 ! D62   D(9,8,38,18)          179.9124         estimate D2E/DX2                !
 ! D63   D(9,8,38,39)           -0.2399         estimate D2E/DX2                !
 ! D64   D(8,9,10,11)           -0.0181         estimate D2E/DX2                !
 ! D65   D(8,9,10,51)         -179.8924         estimate D2E/DX2                !
 ! D66   D(50,9,10,11)         179.5874         estimate D2E/DX2                !
 ! D67   D(50,9,10,51)          -0.2869         estimate D2E/DX2                !
 ! D68   D(9,10,11,12)         179.9825         estimate D2E/DX2                !
 ! D69   D(9,10,11,39)          -0.0817         estimate D2E/DX2                !
 ! D70   D(51,10,11,12)         -0.1452         estimate D2E/DX2                !
 ! D71   D(51,10,11,39)        179.7905         estimate D2E/DX2                !
 ! D72   D(10,11,12,13)        179.9491         estimate D2E/DX2                !
 ! D73   D(10,11,12,52)         -0.0124         estimate D2E/DX2                !
 ! D74   D(39,11,12,13)          0.0139         estimate D2E/DX2                !
 ! D75   D(39,11,12,52)       -179.9476         estimate D2E/DX2                !
 ! D76   D(10,11,39,15)       -179.9703         estimate D2E/DX2                !
 ! D77   D(10,11,39,38)          0.017          estimate D2E/DX2                !
 ! D78   D(12,11,39,15)         -0.0338         estimate D2E/DX2                !
 ! D79   D(12,11,39,38)        179.9536         estimate D2E/DX2                !
 ! D80   D(11,12,13,14)          0.0048         estimate D2E/DX2                !
 ! D81   D(11,12,13,53)       -179.9603         estimate D2E/DX2                !
 ! D82   D(52,12,13,14)        179.9669         estimate D2E/DX2                !
 ! D83   D(52,12,13,53)          0.0018         estimate D2E/DX2                !
 ! D84   D(12,13,14,15)         -0.0032         estimate D2E/DX2                !
 ! D85   D(12,13,14,54)       -179.9679         estimate D2E/DX2                !
 ! D86   D(53,13,14,15)        179.9619         estimate D2E/DX2                !
 ! D87   D(53,13,14,54)         -0.0029         estimate D2E/DX2                !
 ! D88   D(13,14,15,16)        179.999          estimate D2E/DX2                !
 ! D89   D(13,14,15,39)         -0.017          estimate D2E/DX2                !
 ! D90   D(54,14,15,16)         -0.0369         estimate D2E/DX2                !
 ! D91   D(54,14,15,39)        179.9472         estimate D2E/DX2                !
 ! D92   D(14,15,16,17)        179.9737         estimate D2E/DX2                !
 ! D93   D(14,15,16,55)          0.0531         estimate D2E/DX2                !
 ! D94   D(39,15,16,17)         -0.0104         estimate D2E/DX2                !
 ! D95   D(39,15,16,55)       -179.931          estimate D2E/DX2                !
 ! D96   D(14,15,39,11)          0.0353         estimate D2E/DX2                !
 ! D97   D(14,15,39,38)       -179.952          estimate D2E/DX2                !
 ! D98   D(16,15,39,11)       -179.9804         estimate D2E/DX2                !
 ! D99   D(16,15,39,38)          0.0322         estimate D2E/DX2                !
 ! D100  D(15,16,17,18)         -0.0304         estimate D2E/DX2                !
 ! D101  D(15,16,17,56)       -179.8545         estimate D2E/DX2                !
 ! D102  D(55,16,17,18)        179.8915         estimate D2E/DX2                !
 ! D103  D(55,16,17,56)          0.0674         estimate D2E/DX2                !
 ! D104  D(16,17,18,19)       -179.8658         estimate D2E/DX2                !
 ! D105  D(16,17,18,38)          0.0495         estimate D2E/DX2                !
 ! D106  D(56,17,18,19)         -0.0459         estimate D2E/DX2                !
 ! D107  D(56,17,18,38)        179.8695         estimate D2E/DX2                !
 ! D108  D(17,18,19,20)         -0.7145         estimate D2E/DX2                !
 ! D109  D(17,18,19,29)        179.7835         estimate D2E/DX2                !
 ! D110  D(38,18,19,20)        179.3697         estimate D2E/DX2                !
 ! D111  D(38,18,19,29)         -0.1323         estimate D2E/DX2                !
 ! D112  D(17,18,38,8)         179.824          estimate D2E/DX2                !
 ! D113  D(17,18,38,39)         -0.0273         estimate D2E/DX2                !
 ! D114  D(19,18,38,8)          -0.2604         estimate D2E/DX2                !
 ! D115  D(19,18,38,39)        179.8882         estimate D2E/DX2                !
 ! D116  D(18,19,20,21)        179.7108         estimate D2E/DX2                !
 ! D117  D(18,19,20,57)         -0.0253         estimate D2E/DX2                !
 ! D118  D(29,19,20,21)         -0.7432         estimate D2E/DX2                !
 ! D119  D(29,19,20,57)        179.5206         estimate D2E/DX2                !
 ! D120  D(18,19,29,7)           0.8657         estimate D2E/DX2                !
 ! D121  D(18,19,29,28)       -179.3336         estimate D2E/DX2                !
 ! D122  D(20,19,29,7)        -178.7642         estimate D2E/DX2                !
 ! D123  D(20,19,29,28)          1.0366         estimate D2E/DX2                !
 ! D124  D(19,20,21,22)        178.8346         estimate D2E/DX2                !
 ! D125  D(19,20,21,28)          0.1728         estimate D2E/DX2                !
 ! D126  D(57,20,21,22)         -1.4218         estimate D2E/DX2                !
 ! D127  D(57,20,21,28)        179.9164         estimate D2E/DX2                !
 ! D128  D(20,21,22,23)        106.7323         estimate D2E/DX2                !
 ! D129  D(20,21,22,27)        -70.6108         estimate D2E/DX2                !
 ! D130  D(28,21,22,23)        -74.8171         estimate D2E/DX2                !
 ! D131  D(28,21,22,27)        107.8398         estimate D2E/DX2                !
 ! D132  D(20,21,28,29)          0.4617         estimate D2E/DX2                !
 ! D133  D(20,21,28,30)       -177.9739         estimate D2E/DX2                !
 ! D134  D(22,21,28,29)       -178.2318         estimate D2E/DX2                !
 ! D135  D(22,21,28,30)          3.3326         estimate D2E/DX2                !
 ! D136  D(21,22,23,24)       -178.8455         estimate D2E/DX2                !
 ! D137  D(21,22,23,58)          1.679          estimate D2E/DX2                !
 ! D138  D(27,22,23,24)         -1.4866         estimate D2E/DX2                !
 ! D139  D(27,22,23,58)        179.038          estimate D2E/DX2                !
 ! D140  D(21,22,27,26)        178.8031         estimate D2E/DX2                !
 ! D141  D(21,22,27,62)         -2.034          estimate D2E/DX2                !
 ! D142  D(23,22,27,26)          1.4108         estimate D2E/DX2                !
 ! D143  D(23,22,27,62)       -179.4263         estimate D2E/DX2                !
 ! D144  D(22,23,24,25)          0.7175         estimate D2E/DX2                !
 ! D145  D(22,23,24,59)       -179.2493         estimate D2E/DX2                !
 ! D146  D(58,23,24,25)       -179.8013         estimate D2E/DX2                !
 ! D147  D(58,23,24,59)          0.2319         estimate D2E/DX2                !
 ! D148  D(23,24,25,26)          0.1487         estimate D2E/DX2                !
 ! D149  D(23,24,25,60)        179.978          estimate D2E/DX2                !
 ! D150  D(59,24,25,26)       -179.8847         estimate D2E/DX2                !
 ! D151  D(59,24,25,60)         -0.0554         estimate D2E/DX2                !
 ! D152  D(24,25,26,27)         -0.225          estimate D2E/DX2                !
 ! D153  D(24,25,26,61)        179.8448         estimate D2E/DX2                !
 ! D154  D(60,25,26,27)        179.9458         estimate D2E/DX2                !
 ! D155  D(60,25,26,61)          0.0157         estimate D2E/DX2                !
 ! D156  D(25,26,27,22)         -0.5623         estimate D2E/DX2                !
 ! D157  D(25,26,27,62)       -179.7328         estimate D2E/DX2                !
 ! D158  D(61,26,27,22)        179.368          estimate D2E/DX2                !
 ! D159  D(61,26,27,62)          0.1975         estimate D2E/DX2                !
 ! D160  D(21,28,29,7)         178.8469         estimate D2E/DX2                !
 ! D161  D(21,28,29,19)         -0.9402         estimate D2E/DX2                !
 ! D162  D(30,28,29,7)          -2.6515         estimate D2E/DX2                !
 ! D163  D(30,28,29,19)        177.5615         estimate D2E/DX2                !
 ! D164  D(21,28,30,5)        -176.6104         estimate D2E/DX2                !
 ! D165  D(21,28,30,31)         54.4626         estimate D2E/DX2                !
 ! D166  D(21,28,30,32)        -69.1753         estimate D2E/DX2                !
 ! D167  D(29,28,30,5)           5.2147         estimate D2E/DX2                !
 ! D168  D(29,28,30,31)       -123.7123         estimate D2E/DX2                !
 ! D169  D(29,28,30,32)        112.6498         estimate D2E/DX2                !
 ! D170  D(5,30,32,33)        -139.3619         estimate D2E/DX2                !
 ! D171  D(5,30,32,37)          38.2799         estimate D2E/DX2                !
 ! D172  D(28,30,32,33)        121.4236         estimate D2E/DX2                !
 ! D173  D(28,30,32,37)        -60.9346         estimate D2E/DX2                !
 ! D174  D(31,30,32,33)         12.136          estimate D2E/DX2                !
 ! D175  D(31,30,32,37)       -170.2222         estimate D2E/DX2                !
 ! D176  D(30,32,33,34)        178.8211         estimate D2E/DX2                !
 ! D177  D(30,32,33,63)         -2.415          estimate D2E/DX2                !
 ! D178  D(37,32,33,34)          1.0391         estimate D2E/DX2                !
 ! D179  D(37,32,33,63)        179.803          estimate D2E/DX2                !
 ! D180  D(30,32,37,36)       -178.6749         estimate D2E/DX2                !
 ! D181  D(30,32,37,67)          1.7423         estimate D2E/DX2                !
 ! D182  D(33,32,37,36)         -1.0303         estimate D2E/DX2                !
 ! D183  D(33,32,37,67)        179.3869         estimate D2E/DX2                !
 ! D184  D(32,33,34,35)         -0.4831         estimate D2E/DX2                !
 ! D185  D(32,33,34,64)        179.1257         estimate D2E/DX2                !
 ! D186  D(63,33,34,35)       -179.2509         estimate D2E/DX2                !
 ! D187  D(63,33,34,64)          0.3579         estimate D2E/DX2                !
 ! D188  D(33,34,35,36)         -0.1102         estimate D2E/DX2                !
 ! D189  D(33,34,35,65)        179.8162         estimate D2E/DX2                !
 ! D190  D(64,34,35,36)       -179.7178         estimate D2E/DX2                !
 ! D191  D(64,34,35,65)          0.2086         estimate D2E/DX2                !
 ! D192  D(34,35,36,37)          0.1167         estimate D2E/DX2                !
 ! D193  D(34,35,36,66)       -179.9475         estimate D2E/DX2                !
 ! D194  D(65,35,36,37)       -179.8097         estimate D2E/DX2                !
 ! D195  D(65,35,36,66)          0.1262         estimate D2E/DX2                !
 ! D196  D(35,36,37,32)          0.4691         estimate D2E/DX2                !
 ! D197  D(35,36,37,67)       -179.9394         estimate D2E/DX2                !
 ! D198  D(66,36,37,32)       -179.4668         estimate D2E/DX2                !
 ! D199  D(66,36,37,67)          0.1247         estimate D2E/DX2                !
 ! D200  D(8,38,39,11)           0.1488         estimate D2E/DX2                !
 ! D201  D(8,38,39,15)        -179.8639         estimate D2E/DX2                !
 ! D202  D(18,38,39,11)        179.9995         estimate D2E/DX2                !
 ! D203  D(18,38,39,15)         -0.0132         estimate D2E/DX2                !
 --------------------------------------------------------------------------------
 Trust Radius=3.00D-01 FncErr=1.00D-07 GrdErr=1.00D-06 EigMax=2.50D+02 EigMin=1.00D-04
 Number of steps in this run=    402 maximum allowed number of steps=    402.
 GradGradGradGradGradGradGradGradGradGradGradGradGradGradGradGradGradGrad

 Leave Link  103 at Mon Dec  4 20:23:34 2023, MaxMem=  2147483648 cpu:               3.2 elap:               0.2
 (Enter /opt/gaussian/g16-c01/g16/l202.exe)
 Stoichiometry    C36H28NOP
 Framework group  C1[X(C36H28NOP)]
 Deg. of freedom   195
 Full point group                 C1      NOp   1
 Largest Abelian subgroup         C1      NOp   1
 Largest concise Abelian subgroup C1      NOp   1
                         Standard orientation:                         
 ---------------------------------------------------------------------
 Center     Atomic      Atomic             Coordinates (Angstroms)
 Number     Number       Type             X           Y           Z
 ---------------------------------------------------------------------
      1          6           0        1.773950    5.592360   -2.493760
      2          6           0        1.163539    4.733448   -1.397157
      3          6           0        2.221880    4.281241   -0.389017
      4          6           0        1.639333    3.494812    0.791038
      5          6           0        0.936975    2.205553    0.399948
      6          6           0       -0.402032    2.131285    0.519075
      7          6           0       -1.204676    0.951273    0.196106
      8          6           0       -2.625731    0.870590    0.285556
      9          6           0       -3.450499    1.955120    0.662877
     10          6           0       -4.841384    1.841135    0.743288
     11          6           0       -5.472190    0.633002    0.448487
     12          6           0       -6.867245    0.506074    0.525911
     13          6           0       -7.486476   -0.705478    0.228074
     14          6           0       -6.718191   -1.804102   -0.150491
     15          6           0       -5.321776   -1.705028   -0.236000
     16          6           0       -4.547721   -2.806434   -0.615813
     17          6           0       -3.160398   -2.703378   -0.700010
     18          6           0       -2.515166   -1.487564   -0.404427
     19          6           0       -1.101267   -1.393741   -0.496456
     20          6           0       -0.066498   -2.298773   -0.830901
     21          6           0        1.144106   -1.640850   -0.758112
     22          6           0        2.466286   -2.211583   -1.002405
     23          6           0        3.177575   -1.908154   -2.166290
     24          6           0        4.430488   -2.480235   -2.397554
     25          6           0        4.973580   -3.371170   -1.473258
     26          6           0        4.263594   -3.693610   -0.318383
     27          6           0        3.011630   -3.120337   -0.086504
     28          7           0        0.900756   -0.311241   -0.373393
     29          6           0       -0.485977   -0.183361   -0.204705
     30         15           0        2.052029    0.980411   -0.172579
     31          8           0        2.785629    1.037064   -1.483780
     32          6           0        2.785482    0.249149    1.261062
     33          6           0        4.159036   -0.045366    1.225228
     34          6           0        4.807068   -0.600322    2.329554
     35          6           0        4.093034   -0.861745    3.495291
     36          6           0        2.733632   -0.566513    3.557284
     37          6           0        2.085986   -0.011255    2.451494
     38          6           0       -3.270011   -0.353130   -0.016284
     39          6           0       -4.685466   -0.474764    0.065370
     40          1           0        2.541530    5.038670   -3.043774
     41          1           0        2.232793    6.494369   -2.076656
     42          1           0        1.002640    5.902303   -3.205850
     43          1           0        0.381934    5.306357   -0.884992
     44          1           0        0.682316    3.864780   -1.859786
     45          1           0        2.987237    3.685321   -0.899156
     46          1           0        2.736220    5.163914    0.011774
     47          1           0        2.451766    3.251408    1.486875
     48          1           0        0.961552    4.151892    1.351276
     49          1           0       -0.936000    3.000745    0.886919
     50          1           0       -3.026632    2.926678    0.899439
     51          1           0       -5.423693    2.711486    1.037762
     52          1           0       -7.483232    1.353280    0.819187
     53          1           0       -8.567904   -0.793807    0.290306
     54          1           0       -7.219617   -2.741832   -0.379763
     55          1           0       -5.018393   -3.758205   -0.851908
     56          1           0       -2.591474   -3.579250   -1.000754
     57          1           0       -0.181462   -3.339470   -1.106399
     58          1           0        2.765252   -1.216917   -2.898538
     59          1           0        4.979857   -2.227297   -3.300577
     60          1           0        5.948467   -3.815486   -1.655263
     61          1           0        4.682613   -4.389596    0.403096
     62          1           0        2.468626   -3.376150    0.820504
     63          1           0        4.726352    0.143395    0.313749
     64          1           0        5.867397   -0.833141    2.274373
     65          1           0        4.595735   -1.296701    4.355138
     66          1           0        2.175000   -0.769497    4.467676
     67          1           0        1.023550    0.209855    2.529329
 ---------------------------------------------------------------------
 Rotational constants (GHZ):           0.1401368           0.0656667           0.0537857
 Leave Link  202 at Mon Dec  4 20:23:34 2023, MaxMem=  2147483648 cpu:               1.7 elap:               0.1
 (Enter /opt/gaussian/g16-c01/g16/l301.exe)
 Standard basis: 6-311++G(d,p) (5D, 7F)
 Ernie: Thresh=  0.10000D-02 Tol=  0.10000D-05 Strict=F.
 There are  1101 symmetry adapted cartesian basis functions of A   symmetry.
 There are  1062 symmetry adapted basis functions of A   symmetry.
  1062 basis functions,  1670 primitive gaussians,  1101 cartesian basis functions
   137 alpha electrons      137 beta electrons
       nuclear repulsion energy      4391.3982688581 Hartrees.
 IExCor= 7252 DFT=T Ex+Corr=MN15 ExCW=0 ScaHFX=  0.440000
 ScaDFX=  1.000000  1.000000  1.000000  1.000000 ScalE2=  1.000000  1.000000
 IRadAn=      5 IRanWt=     -1 IRanGd=            0 ICorTp=0 IEmpDi=  4
 NAtoms=   67 NActive=   67 NUniq=   67 SFac= 1.00D+00 NAtFMM=   60 NAOKFM=T Big=T
 Integral buffers will be    131072 words long.
 Raffenetti 2 integral format.
 Two-electron integral symmetry is turned on.
 Leave Link  301 at Mon Dec  4 20:23:35 2023, MaxMem=  2147483648 cpu:               3.3 elap:               0.2
 (Enter /opt/gaussian/g16-c01/g16/l302.exe)
 NPDir=0 NMtPBC=     1 NCelOv=     1 NCel=       1 NClECP=     1 NCelD=      1
         NCelK=      1 NCelE2=     1 NClLst=     1 CellRange=     0.0.
 One-electron integrals computed using PRISM.
 One-electron integral symmetry used in STVInt
 NBasis=  1062 RedAO= T EigKep=  1.19D-06  NBF=  1062
 NBsUse=  1041 1.00D-06 EigRej=  6.24D-07 NBFU=  1041
 Precomputing XC quadrature grid using
 IXCGrd= 4 IRadAn=           5 IRanWt=          -1 IRanGd=           0 AccXCQ= 0.00D+00.
 Generated NRdTot=       0 NPtTot=           0 NUsed=           0 NTot=          32
 NSgBfM=  1081  1081  1081  1081  1081 MxSgAt=    67 MxSgA2=    67.
 Leave Link  302 at Mon Dec  4 20:23:37 2023, MaxMem=  2147483648 cpu:              66.0 elap:               2.6
 (Enter /opt/gaussian/g16-c01/g16/l303.exe)
 DipDrv:  MaxL=1.
 Leave Link  303 at Mon Dec  4 20:23:38 2023, MaxMem=  2147483648 cpu:               8.3 elap:               0.4
 (Enter /opt/gaussian/g16-c01/g16/l401.exe)
 ExpMin= 3.48D-02 ExpMax= 7.75D+04 ExpMxC= 2.65D+03 IAcc=3 IRadAn=         5 AccDes= 0.00D+00
 Harris functional with IExCor= 1009 and IRadAn=       5 diagonalized for initial guess.
 HarFok:  IExCor= 1009 AccDes= 0.00D+00 IRadAn=         5 IDoV= 1 UseB2=F ITyADJ=14
 ICtDFT=  3500011 ScaDFX=  1.000000  1.000000  1.000000  1.000000
 FoFCou: FMM=F IPFlag=           0 FMFlag=      100000 FMFlg1=        2001
         NFxFlg=           0 DoJE=T BraDBF=F KetDBF=T FulRan=T
         wScrn=  0.000000 ICntrl=       500 IOpCl=  0 I1Cent=   200000004 NGrid=           0
         NMat0=    1 NMatS0=      1 NMatT0=    0 NMatD0=    1 NMtDS0=    0 NMtDT0=    0
 Petite list used in FoFCou.
 Harris En= -1859.03407763664    
 JPrj=0 DoOrth=F DoCkMO=F.
 Leave Link  401 at Mon Dec  4 20:23:45 2023, MaxMem=  2147483648 cpu:             186.1 elap:               7.3
 (Enter /opt/gaussian/g16-c01/g16/l502.exe)
 Integral symmetry usage will be decided dynamically.
 Closed shell SCF:
 Using DIIS extrapolation, IDIIS=  1040.
 NGot=  2147483648 LenX=  2145018787 LenY=  2143805485
 Requested convergence on RMS density matrix=1.00D-08 within 128 cycles.
 Requested convergence on MAX density matrix=1.00D-06.
 Requested convergence on             energy=1.00D-06.
 No special actions if energy rises.
 Fock matrices will be formed incrementally for  20 cycles.

 Cycle   1  Pass 1  IDiag  1:
 FoFJK:  IHMeth= 1 ICntrl=       0 DoSepK=F KAlg= 0 I1Cent=           0 FoldK=F
 IRaf= 850000000 NMat=       1 IRICut=       1 DoRegI=T DoRafI=F ISym2E= 0 IDoP0=0 IntGTp=1.
 FoFCou: FMM=T IPFlag=           0 FMFlag=      100000 FMFlg1=        2001
         NFxFlg=           0 DoJE=F BraDBF=F KetDBF=F FulRan=T
         wScrn=  0.000000 ICntrl=         0 IOpCl=  0 I1Cent=           0 NGrid=           0
         NMat0=    1 NMatS0=      1 NMatT0=    0 NMatD0=    1 NMtDS0=    0 NMtDT0=    0
 Symmetry not used in FoFCou.
 FMM levels:  10  Number of levels for PrismC:   9
 E= -1857.56847870773    
 DIIS: error= 1.45D-02 at cycle   1 NSaved=   1.
 NSaved= 1 IEnMin= 1 EnMin= -1857.56847870773     IErMin= 1 ErrMin= 1.45D-02
 ErrMax= 1.45D-02  0.00D+00 EMaxC= 1.00D-01 BMatC= 1.27D+00 BMatP= 1.27D+00
 IDIUse=3 WtCom= 8.55D-01 WtEn= 1.45D-01
 Coeff-Com:  0.100D+01
 Coeff-En:   0.100D+01
 Coeff:      0.100D+01
 Gap=     0.139 Goal=   None    Shift=    0.000
 GapD=    0.139 DampG=1.000 DampE=0.500 DampFc=0.5000 IDamp=-1.
 Damping current iteration by 5.00D-01
 RMSDP=4.98D-02 MaxDP=7.97D+00              OVMax= 2.25D-01

 Cycle   2  Pass 1  IDiag  1:
 RMSU=  2.49D-02    CP:  9.92D-01
 E= -1857.95125894781     Delta-E=       -0.382780240076 Rises=F Damp=T
 DIIS: error= 6.11D-03 at cycle   2 NSaved=   2.
 NSaved= 2 IEnMin= 2 EnMin= -1857.95125894781     IErMin= 2 ErrMin= 6.11D-03
 ErrMax= 6.11D-03  0.00D+00 EMaxC= 1.00D-01 BMatC= 1.77D-01 BMatP= 1.27D+00
 IDIUse=3 WtCom= 9.39D-01 WtEn= 6.11D-02
 Coeff-Com:  0.126D-01 0.987D+00
 Coeff-En:   0.116D+00 0.884D+00
 Coeff:      0.189D-01 0.981D+00
 Gap=     0.176 Goal=   None    Shift=    0.000
 RMSDP=3.23D-02 MaxDP=6.68D+00 DE=-3.83D-01 OVMax= 2.40D-01

 Cycle   3  Pass 1  IDiag  1:
 RMSU=  1.21D-02    CP:  5.63D-01  2.78D-01
 E= -1858.29782922289     Delta-E=       -0.346570275080 Rises=F Damp=F
 DIIS: error= 9.87D-03 at cycle   3 NSaved=   3.
 NSaved= 3 IEnMin= 3 EnMin= -1858.29782922289     IErMin= 2 ErrMin= 6.11D-03
 ErrMax= 9.87D-03  0.00D+00 EMaxC= 1.00D-01 BMatC= 2.43D-01 BMatP= 1.77D-01
 IDIUse=3 WtCom= 9.15D-02 WtEn= 9.09D-01
 Coeff-Com: -0.117D+00 0.615D+00 0.502D+00
 Coeff-En:   0.000D+00 0.000D+00 0.100D+01
 Coeff:     -0.107D-01 0.563D-01 0.954D+00
 Gap=     0.155 Goal=   None    Shift=    0.000
 RMSDP=4.61D-02 MaxDP=7.42D+00 DE=-3.47D-01 OVMax= 3.54D-01

 Cycle   4  Pass 1  IDiag  1:
 RMSU=  1.39D-02    CP:  8.51D-01  1.80D+00 -2.79D-01
 E= -1857.46949234245     Delta-E=        0.828336880437 Rises=F Damp=F
 DIIS: error= 2.33D-02 at cycle   4 NSaved=   4.
 NSaved= 4 IEnMin= 3 EnMin= -1858.29782922289     IErMin= 2 ErrMin= 6.11D-03
 ErrMax= 2.33D-02  0.00D+00 EMaxC= 1.00D-01 BMatC= 1.22D+00 BMatP= 1.77D-01
 IDIUse=2 WtCom= 0.00D+00 WtEn= 1.00D+00
 Coeff-En:   0.000D+00 0.000D+00 0.781D+00 0.219D+00
 Coeff:      0.000D+00 0.000D+00 0.781D+00 0.219D+00
 Gap=     0.152 Goal=   None    Shift=    0.000
 RMSDP=2.94D-02 MaxDP=4.58D+00 DE= 8.28D-01 OVMax= 1.57D-01

 Cycle   5  Pass 1  IDiag  1:
 RMSU=  4.50D-03    CP:  6.46D-01  8.82D-01  5.56D-01  3.28D-01
 E= -1858.42676232784     Delta-E=       -0.957269985394 Rises=F Damp=F
 DIIS: error= 6.26D-03 at cycle   5 NSaved=   5.
 NSaved= 5 IEnMin= 5 EnMin= -1858.42676232784     IErMin= 2 ErrMin= 6.11D-03
 ErrMax= 6.26D-03  0.00D+00 EMaxC= 1.00D-01 BMatC= 8.58D-02 BMatP= 1.77D-01
 IDIUse=3 WtCom= 9.37D-01 WtEn= 6.26D-02
 Coeff-Com:  0.588D-03 0.140D-01 0.294D+00-0.794D-01 0.771D+00
 Coeff-En:   0.000D+00 0.000D+00 0.311D+00 0.000D+00 0.689D+00
 Coeff:      0.551D-03 0.131D-01 0.295D+00-0.744D-01 0.766D+00
 Gap=     0.142 Goal=   None    Shift=    0.000
 RMSDP=7.57D-03 MaxDP=1.43D+00 DE=-9.57D-01 OVMax= 8.36D-02

 Cycle   6  Pass 1  IDiag  1:
 RMSU=  1.83D-03    CP:  5.95D-01  6.52D-01  7.52D-01  1.46D-01  7.49D-01
 E= -1858.49589438342     Delta-E=       -0.069132055580 Rises=F Damp=F
 DIIS: error= 9.17D-04 at cycle   6 NSaved=   6.
 NSaved= 6 IEnMin= 6 EnMin= -1858.49589438342     IErMin= 6 ErrMin= 9.17D-04
 ErrMax= 9.17D-04  0.00D+00 EMaxC= 1.00D-01 BMatC= 1.83D-03 BMatP= 8.58D-02
 IDIUse=3 WtCom= 9.91D-01 WtEn= 9.17D-03
 Coeff-Com:  0.185D-02 0.695D-03 0.176D+00-0.580D-01 0.503D+00 0.376D+00
 Coeff-En:   0.000D+00 0.000D+00 0.000D+00 0.000D+00 0.000D+00 0.100D+01
 Coeff:      0.183D-02 0.689D-03 0.174D+00-0.574D-01 0.499D+00 0.382D+00
 Gap=     0.141 Goal=   None    Shift=    0.000
 RMSDP=9.46D-04 MaxDP=1.38D-01 DE=-6.91D-02 OVMax= 1.68D-02

 Cycle   7  Pass 1  IDiag  1:
 RMSU=  3.42D-04    CP:  5.95D-01  6.52D-01  7.52D-01  1.63D-01  7.96D-01
                    CP:  5.50D-01
 E= -1858.49755717539     Delta-E=       -0.001662791967 Rises=F Damp=F
 DIIS: error= 2.51D-04 at cycle   7 NSaved=   7.
 NSaved= 7 IEnMin= 7 EnMin= -1858.49755717539     IErMin= 7 ErrMin= 2.51D-04
 ErrMax= 2.51D-04  0.00D+00 EMaxC= 1.00D-01 BMatC= 1.16D-04 BMatP= 1.83D-03
 IDIUse=3 WtCom= 9.97D-01 WtEn= 2.51D-03
 Coeff-Com:  0.119D-02-0.198D-02 0.314D-01-0.135D-01 0.774D-01 0.107D+00
 Coeff-Com:  0.798D+00
 Coeff-En:   0.000D+00 0.000D+00 0.000D+00 0.000D+00 0.000D+00 0.000D+00
 Coeff-En:   0.100D+01
 Coeff:      0.119D-02-0.198D-02 0.313D-01-0.135D-01 0.772D-01 0.107D+00
 Coeff:      0.799D+00
 Gap=     0.141 Goal=   None    Shift=    0.000
 RMSDP=2.84D-04 MaxDP=4.26D-02 DE=-1.66D-03 OVMax= 4.25D-03

 Cycle   8  Pass 1  IDiag  1:
 RMSU=  9.21D-05    CP:  5.93D-01  6.45D-01  7.61D-01  1.59D-01  7.86D-01
                    CP:  5.54D-01  1.01D+00
 E= -1858.49766823961     Delta-E=       -0.000111064216 Rises=F Damp=F
 DIIS: error= 7.26D-05 at cycle   8 NSaved=   8.
 NSaved= 8 IEnMin= 8 EnMin= -1858.49766823961     IErMin= 8 ErrMin= 7.26D-05
 ErrMax= 7.26D-05  0.00D+00 EMaxC= 1.00D-01 BMatC= 1.00D-05 BMatP= 1.16D-04
 IDIUse=1 WtCom= 1.00D+00 WtEn= 0.00D+00
 Coeff-Com:  0.752D-03-0.193D-02 0.323D-02-0.204D-02-0.838D-03 0.214D-01
 Coeff-Com:  0.415D+00 0.565D+00
 Coeff:      0.752D-03-0.193D-02 0.323D-02-0.204D-02-0.838D-03 0.214D-01
 Coeff:      0.415D+00 0.565D+00
 Gap=     0.141 Goal=   None    Shift=    0.000
 RMSDP=6.87D-05 MaxDP=9.52D-03 DE=-1.11D-04 OVMax= 7.93D-04

 Cycle   9  Pass 1  IDiag  1:
 RMSU=  4.34D-05    CP:  5.93D-01  6.43D-01  7.63D-01  1.58D-01  7.85D-01
                    CP:  5.59D-01  1.04D+00  9.13D-01
 E= -1858.49767759974     Delta-E=       -0.000009360137 Rises=F Damp=F
 DIIS: error= 2.75D-05 at cycle   9 NSaved=   9.
 NSaved= 9 IEnMin= 9 EnMin= -1858.49767759974     IErMin= 9 ErrMin= 2.75D-05
 ErrMax= 2.75D-05  0.00D+00 EMaxC= 1.00D-01 BMatC= 8.75D-07 BMatP= 1.00D-05
 IDIUse=1 WtCom= 1.00D+00 WtEn= 0.00D+00
 Coeff-Com:  0.250D-03-0.771D-03-0.240D-02 0.608D-03-0.993D-02 0.904D-03
 Coeff-Com:  0.107D+00 0.275D+00 0.629D+00
 Coeff:      0.250D-03-0.771D-03-0.240D-02 0.608D-03-0.993D-02 0.904D-03
 Coeff:      0.107D+00 0.275D+00 0.629D+00
 Gap=     0.141 Goal=   None    Shift=    0.000
 RMSDP=2.35D-05 MaxDP=2.72D-03 DE=-9.36D-06 OVMax= 4.45D-04

 Cycle  10  Pass 1  IDiag  1:
 RMSU=  1.84D-05    CP:  5.93D-01  6.43D-01  7.64D-01  1.58D-01  7.85D-01
                    CP:  5.63D-01  1.03D+00  9.15D-01  8.40D-01
 E= -1858.49767860426     Delta-E=       -0.000001004515 Rises=F Damp=F
 DIIS: error= 1.07D-05 at cycle  10 NSaved=  10.
 NSaved=10 IEnMin=10 EnMin= -1858.49767860426     IErMin=10 ErrMin= 1.07D-05
 ErrMax= 1.07D-05  0.00D+00 EMaxC= 1.00D-01 BMatC= 1.99D-07 BMatP= 8.75D-07
 IDIUse=1 WtCom= 1.00D+00 WtEn= 0.00D+00
 Coeff-Com: -0.206D-05-0.615D-04-0.194D-02 0.612D-03-0.491D-02-0.585D-03
 Coeff-Com: -0.104D-01 0.486D-01 0.325D+00 0.644D+00
 Coeff:     -0.206D-05-0.615D-04-0.194D-02 0.612D-03-0.491D-02-0.585D-03
 Coeff:     -0.104D-01 0.486D-01 0.325D+00 0.644D+00
 Gap=     0.141 Goal=   None    Shift=    0.000
 RMSDP=1.28D-05 MaxDP=2.44D-03 DE=-1.00D-06 OVMax= 2.13D-04

 Cycle  11  Pass 1  IDiag  1:
 RMSU=  6.47D-06    CP:  5.93D-01  6.43D-01  7.64D-01  1.58D-01  7.85D-01
                    CP:  5.67D-01  1.03D+00  9.37D-01  9.96D-01  8.13D-01
 E= -1858.49767883356     Delta-E=       -0.000000229301 Rises=F Damp=F
 DIIS: error= 8.00D-06 at cycle  11 NSaved=  11.
 NSaved=11 IEnMin=11 EnMin= -1858.49767883356     IErMin=11 ErrMin= 8.00D-06
 ErrMax= 8.00D-06  0.00D+00 EMaxC= 1.00D-01 BMatC= 3.63D-08 BMatP= 1.99D-07
 IDIUse=1 WtCom= 1.00D+00 WtEn= 0.00D+00
 Coeff-Com: -0.448D-04 0.929D-04-0.781D-03 0.258D-03-0.120D-02 0.138D-03
 Coeff-Com: -0.226D-01-0.184D-01 0.775D-01 0.342D+00 0.623D+00
 Coeff:     -0.448D-04 0.929D-04-0.781D-03 0.258D-03-0.120D-02 0.138D-03
 Coeff:     -0.226D-01-0.184D-01 0.775D-01 0.342D+00 0.623D+00
 Gap=     0.141 Goal=   None    Shift=    0.000
 RMSDP=3.05D-06 MaxDP=2.58D-04 DE=-2.29D-07 OVMax= 1.38D-04

 Cycle  12  Pass 1  IDiag  1:
 RMSU=  2.48D-06    CP:  5.93D-01  6.43D-01  7.64D-01  1.58D-01  7.85D-01
                    CP:  5.68D-01  1.03D+00  9.44D-01  9.98D-01  8.73D-01
                    CP:  1.04D+00
 E= -1858.49767887817     Delta-E=       -0.000000044606 Rises=F Damp=F
 DIIS: error= 2.87D-06 at cycle  12 NSaved=  12.
 NSaved=12 IEnMin=12 EnMin= -1858.49767887817     IErMin=12 ErrMin= 2.87D-06
 ErrMax= 2.87D-06  0.00D+00 EMaxC= 1.00D-01 BMatC= 6.74D-09 BMatP= 3.63D-08
 IDIUse=1 WtCom= 1.00D+00 WtEn= 0.00D+00
 Coeff-Com: -0.251D-04 0.613D-04-0.528D-04 0.290D-04 0.310D-03 0.290D-03
 Coeff-Com: -0.103D-01-0.211D-01-0.275D-01 0.476D-01 0.363D+00 0.648D+00
 Coeff:     -0.251D-04 0.613D-04-0.528D-04 0.290D-04 0.310D-03 0.290D-03
 Coeff:     -0.103D-01-0.211D-01-0.275D-01 0.476D-01 0.363D+00 0.648D+00
 Gap=     0.141 Goal=   None    Shift=    0.000
 RMSDP=2.02D-06 MaxDP=3.18D-04 DE=-4.46D-08 OVMax= 4.19D-05

 Cycle  13  Pass 1  IDiag  1:
 RMSU=  1.04D-06    CP:  5.93D-01  6.43D-01  7.64D-01  1.58D-01  7.85D-01
                    CP:  5.68D-01  1.03D+00  9.43D-01  1.02D+00  8.69D-01
                    CP:  1.24D+00  1.04D+00
 E= -1858.49767888715     Delta-E=       -0.000000008984 Rises=F Damp=F
 DIIS: error= 7.86D-07 at cycle  13 NSaved=  13.
 NSaved=13 IEnMin=13 EnMin= -1858.49767888715     IErMin=13 ErrMin= 7.86D-07
 ErrMax= 7.86D-07  0.00D+00 EMaxC= 1.00D-01 BMatC= 7.00D-10 BMatP= 6.74D-09
 IDIUse=1 WtCom= 1.00D+00 WtEn= 0.00D+00
 Coeff-Com: -0.786D-05 0.212D-04 0.694D-04-0.172D-04 0.258D-03 0.706D-04
 Coeff-Com: -0.192D-02-0.722D-02-0.214D-01-0.222D-01 0.829D-01 0.309D+00
 Coeff-Com:  0.661D+00
 Coeff:     -0.786D-05 0.212D-04 0.694D-04-0.172D-04 0.258D-03 0.706D-04
 Coeff:     -0.192D-02-0.722D-02-0.214D-01-0.222D-01 0.829D-01 0.309D+00
 Coeff:      0.661D+00
 Gap=     0.141 Goal=   None    Shift=    0.000
 RMSDP=5.08D-07 MaxDP=7.97D-05 DE=-8.98D-09 OVMax= 1.99D-05

 Cycle  14  Pass 1  IDiag  1:
 RMSU=  2.78D-07    CP:  5.93D-01  6.43D-01  7.64D-01  1.58D-01  7.85D-01
                    CP:  5.68D-01  1.03D+00  9.44D-01  1.02D+00  8.64D-01
                    CP:  1.28D+00  1.10D+00  9.76D-01
 E= -1858.49767888813     Delta-E=       -0.000000000979 Rises=F Damp=F
 DIIS: error= 2.48D-07 at cycle  14 NSaved=  14.
 NSaved=14 IEnMin=14 EnMin= -1858.49767888813     IErMin=14 ErrMin= 2.48D-07
 ErrMax= 2.48D-07  0.00D+00 EMaxC= 1.00D-01 BMatC= 1.04D-10 BMatP= 7.00D-10
 IDIUse=1 WtCom= 1.00D+00 WtEn= 0.00D+00
 Coeff-Com: -0.160D-05 0.521D-05 0.425D-04-0.117D-04 0.906D-04-0.107D-04
 Coeff-Com:  0.717D-04-0.130D-02-0.708D-02-0.149D-01 0.118D-02 0.741D-01
 Coeff-Com:  0.308D+00 0.640D+00
 Coeff:     -0.160D-05 0.521D-05 0.425D-04-0.117D-04 0.906D-04-0.107D-04
 Coeff:      0.717D-04-0.130D-02-0.708D-02-0.149D-01 0.118D-02 0.741D-01
 Coeff:      0.308D+00 0.640D+00
 Gap=     0.141 Goal=   None    Shift=    0.000
 RMSDP=2.38D-07 MaxDP=2.60D-05 DE=-9.79D-10 OVMax= 6.39D-06

 Cycle  15  Pass 1  IDiag  1:
 RMSU=  1.29D-07    CP:  5.93D-01  6.43D-01  7.64D-01  1.58D-01  7.85D-01
                    CP:  5.68D-01  1.03D+00  9.43D-01  1.02D+00  8.68D-01
                    CP:  1.28D+00  1.11D+00  1.03D+00  9.70D-01
 E= -1858.49767888846     Delta-E=       -0.000000000328 Rises=F Damp=F
 DIIS: error= 1.17D-07 at cycle  15 NSaved=  15.
 NSaved=15 IEnMin=15 EnMin= -1858.49767888846     IErMin=15 ErrMin= 1.17D-07
 ErrMax= 1.17D-07  0.00D+00 EMaxC= 1.00D-01 BMatC= 1.78D-11 BMatP= 1.04D-10
 IDIUse=1 WtCom= 1.00D+00 WtEn= 0.00D+00
 Coeff-Com:  0.419D-06-0.474D-06 0.127D-04-0.379D-05 0.771D-05-0.169D-04
 Coeff-Com:  0.321D-03 0.509D-03 0.183D-03-0.302D-02-0.127D-01-0.186D-01
 Coeff-Com:  0.307D-01 0.309D+00 0.694D+00
 Coeff:      0.419D-06-0.474D-06 0.127D-04-0.379D-05 0.771D-05-0.169D-04
 Coeff:      0.321D-03 0.509D-03 0.183D-03-0.302D-02-0.127D-01-0.186D-01
 Coeff:      0.307D-01 0.309D+00 0.694D+00
 Gap=     0.141 Goal=   None    Shift=    0.000
 RMSDP=1.40D-07 MaxDP=2.89D-05 DE=-3.28D-10 OVMax= 3.70D-06

 Cycle  16  Pass 1  IDiag  1:
 RMSU=  6.28D-08    CP:  5.93D-01  6.43D-01  7.64D-01  1.58D-01  7.85D-01
                    CP:  5.68D-01  1.03D+00  9.43D-01  1.02D+00  8.64D-01
                    CP:  1.29D+00  1.12D+00  1.06D+00  1.12D+00  1.06D+00
 E= -1858.49767888801     Delta-E=        0.000000000444 Rises=F Damp=F
 DIIS: error= 5.99D-08 at cycle  16 NSaved=  16.
 NSaved=16 IEnMin=15 EnMin= -1858.49767888846     IErMin=16 ErrMin= 5.99D-08
 ErrMax= 5.99D-08  0.00D+00 EMaxC= 1.00D-01 BMatC= 3.05D-12 BMatP= 1.78D-11
 IDIUse=1 WtCom= 1.00D+00 WtEn= 0.00D+00
 Coeff-Com:  0.499D-06-0.116D-05 0.448D-06-0.176D-06-0.954D-05-0.843D-05
 Coeff-Com:  0.152D-03 0.452D-03 0.119D-02 0.744D-03-0.643D-02-0.216D-01
 Coeff-Com: -0.326D-01 0.615D-01 0.364D+00 0.633D+00
 Coeff:      0.499D-06-0.116D-05 0.448D-06-0.176D-06-0.954D-05-0.843D-05
 Coeff:      0.152D-03 0.452D-03 0.119D-02 0.744D-03-0.643D-02-0.216D-01
 Coeff:     -0.326D-01 0.615D-01 0.364D+00 0.633D+00
 Gap=     0.141 Goal=   None    Shift=    0.000
 RMSDP=2.94D-08 MaxDP=4.19D-06 DE= 4.44D-10 OVMax= 1.75D-06

 Cycle  17  Pass 1  IDiag  1:
 RMSU=  1.89D-08    CP:  5.93D-01  6.43D-01  7.64D-01  1.58D-01  7.85D-01
                    CP:  5.68D-01  1.03D+00  9.43D-01  1.02D+00  8.64D-01
                    CP:  1.29D+00  1.12D+00  1.07D+00  1.15D+00  1.10D+00
                    CP:  9.54D-01
 E= -1858.49767888876     Delta-E=       -0.000000000749 Rises=F Damp=F
 DIIS: error= 3.20D-08 at cycle  17 NSaved=  17.
 NSaved=17 IEnMin=17 EnMin= -1858.49767888876     IErMin=17 ErrMin= 3.20D-08
 ErrMax= 3.20D-08  0.00D+00 EMaxC= 1.00D-01 BMatC= 3.67D-13 BMatP= 3.05D-12
 IDIUse=1 WtCom= 1.00D+00 WtEn= 0.00D+00
 Coeff-Com:  0.155D-06-0.459D-06-0.179D-05 0.489D-06-0.455D-05 0.191D-06
 Coeff-Com:  0.134D-04 0.897D-04 0.400D-03 0.663D-03-0.293D-03-0.516D-02
 Coeff-Com: -0.171D-01-0.271D-01 0.176D-01 0.265D+00 0.766D+00
 Coeff:      0.155D-06-0.459D-06-0.179D-05 0.489D-06-0.455D-05 0.191D-06
 Coeff:      0.134D-04 0.897D-04 0.400D-03 0.663D-03-0.293D-03-0.516D-02
 Coeff:     -0.171D-01-0.271D-01 0.176D-01 0.265D+00 0.766D+00
 Gap=     0.141 Goal=   None    Shift=    0.000
 RMSDP=1.93D-08 MaxDP=3.04D-06 DE=-7.49D-10 OVMax= 8.43D-07

 Cycle  18  Pass 1  IDiag  1:
 RMSU=  1.05D-08    CP:  5.93D-01  6.43D-01  7.64D-01  1.58D-01  7.85D-01
                    CP:  5.68D-01  1.03D+00  9.43D-01  1.02D+00  8.64D-01
                    CP:  1.29D+00  1.11D+00  1.07D+00  1.17D+00  1.12D+00
                    CP:  1.05D+00  1.05D+00
 E= -1858.49767888885     Delta-E=       -0.000000000092 Rises=F Damp=F
 DIIS: error= 1.14D-08 at cycle  18 NSaved=  18.
 NSaved=18 IEnMin=18 EnMin= -1858.49767888885     IErMin=18 ErrMin= 1.14D-08
 ErrMax= 1.14D-08  0.00D+00 EMaxC= 1.00D-01 BMatC= 7.94D-14 BMatP= 3.67D-13
 IDIUse=1 WtCom= 1.00D+00 WtEn= 0.00D+00
 Coeff-Com: -0.174D-07-0.401D-08-0.101D-05 0.250D-06-0.466D-06 0.211D-05
 Coeff-Com: -0.205D-04-0.369D-04-0.179D-04 0.172D-03 0.104D-02 0.138D-02
 Coeff-Com: -0.217D-02-0.233D-01-0.603D-01 0.203D-01 0.370D+00 0.693D+00
 Coeff:     -0.174D-07-0.401D-08-0.101D-05 0.250D-06-0.466D-06 0.211D-05
 Coeff:     -0.205D-04-0.369D-04-0.179D-04 0.172D-03 0.104D-02 0.138D-02
 Coeff:     -0.217D-02-0.233D-01-0.603D-01 0.203D-01 0.370D+00 0.693D+00
 Gap=     0.141 Goal=   None    Shift=    0.000
 RMSDP=9.11D-09 MaxDP=1.73D-06 DE=-9.19D-11 OVMax= 3.93D-07

 Cycle  19  Pass 1  IDiag  1:
 RMSU=  4.31D-09    CP:  5.93D-01  6.43D-01  7.64D-01  1.58D-01  7.85D-01
                    CP:  5.68D-01  1.03D+00  9.43D-01  1.02D+00  8.64D-01
                    CP:  1.29D+00  1.11D+00  1.07D+00  1.17D+00  1.13D+00
                    CP:  1.11D+00  1.18D+00  9.53D-01
 E= -1858.49767888858     Delta-E=        0.000000000271 Rises=F Damp=F
 DIIS: error= 7.03D-09 at cycle  19 NSaved=  19.
 NSaved=19 IEnMin=18 EnMin= -1858.49767888885     IErMin=19 ErrMin= 7.03D-09
 ErrMax= 7.03D-09  0.00D+00 EMaxC= 1.00D-01 BMatC= 1.78D-14 BMatP= 7.94D-14
 IDIUse=1 WtCom= 1.00D+00 WtEn= 0.00D+00
 Coeff-Com: -0.336D-07 0.676D-07-0.288D-06 0.746D-07 0.300D-06 0.100D-05
 Coeff-Com: -0.115D-04-0.330D-04-0.813D-04-0.486D-04 0.566D-03 0.159D-02
 Coeff-Com:  0.191D-02-0.721D-02-0.365D-01-0.373D-01 0.401D-01 0.370D+00
 Coeff-Com:  0.667D+00
 Coeff:     -0.336D-07 0.676D-07-0.288D-06 0.746D-07 0.300D-06 0.100D-05
 Coeff:     -0.115D-04-0.330D-04-0.813D-04-0.486D-04 0.566D-03 0.159D-02
 Coeff:      0.191D-02-0.721D-02-0.365D-01-0.373D-01 0.401D-01 0.370D+00
 Coeff:      0.667D+00
 Gap=     0.141 Goal=   None    Shift=    0.000
 RMSDP=2.67D-09 MaxDP=3.02D-07 DE= 2.71D-10 OVMax= 1.55D-07

 SCF Done:  E(RMN15) =  -1858.49767889     A.U. after   19 cycles
            NFock= 19  Conv=0.27D-08     -V/T= 2.0034
 KE= 1.852115332322D+03 PE=-1.311970683632D+04 EE= 5.017695556252D+03
 Leave Link  502 at Mon Dec  4 20:38:44 2023, MaxMem=  2147483648 cpu:           23190.4 elap:             898.7
 (Enter /opt/gaussian/g16-c01/g16/l601.exe)
 Copying SCF densities to generalized density rwf, IOpCl= 0 IROHF=0.

 **********************************************************************

            Population analysis using the SCF Density.

 **********************************************************************

 Orbital symmetries:
       Occupied  (A) (A) (A) (A) (A) (A) (A) (A) (A) (A) (A) (A)
                 (A) (A) (A) (A) (A) (A) (A) (A) (A) (A) (A) (A)
                 (A) (A) (A) (A) (A) (A) (A) (A) (A) (A) (A) (A)
                 (A) (A) (A) (A) (A) (A) (A) (A) (A) (A) (A) (A)
                 (A) (A) (A) (A) (A) (A) (A) (A) (A) (A) (A) (A)
                 (A) (A) (A) (A) (A) (A) (A) (A) (A) (A) (A) (A)
                 (A) (A) (A) (A) (A) (A) (A) (A) (A) (A) (A) (A)
                 (A) (A) (A) (A) (A) (A) (A) (A) (A) (A) (A) (A)
                 (A) (A) (A) (A) (A) (A) (A) (A) (A) (A) (A) (A)
                 (A) (A) (A) (A) (A) (A) (A) (A) (A) (A) (A) (A)
                 (A) (A) (A) (A) (A) (A) (A) (A) (A) (A) (A) (A)
                 (A) (A) (A) (A) (A)
       Virtual   (A) (A) (A) (A) (A) (A) (A) (A) (A) (A) (A) (A)
                 (A) (A) (A) (A) (A) (A) (A) (A) (A) (A) (A) (A)
                 (A) (A) (A) (A) (A) (A) (A) (A) (A) (A) (A) (A)
                 (A) (A) (A) (A) (A) (A) (A) (A) (A) (A) (A) (A)
                 (A) (A) (A) (A) (A) (A) (A) (A) (A) (A) (A) (A)
                 (A) (A) (A) (A) (A) (A) (A) (A) (A) (A) (A) (A)
                 (A) (A) (A) (A) (A) (A) (A) (A) (A) (A) (A) (A)
                 (A) (A) (A) (A) (A) (A) (A) (A) (A) (A) (A) (A)
                 (A) (A) (A) (A) (A) (A) (A) (A) (A) (A) (A) (A)
                 (A) (A) (A) (A) (A) (A) (A) (A) (A) (A) (A) (A)
                 (A) (A) (A) (A) (A) (A) (A) (A) (A) (A) (A) (A)
                 (A) (A) (A) (A) (A) (A) (A) (A) (A) (A) (A) (A)
                 (A) (A) (A) (A) (A) (A) (A) (A) (A) (A) (A) (A)
                 (A) (A) (A) (A) (A) (A) (A) (A) (A) (A) (A) (A)
                 (A) (A) (A) (A) (A) (A) (A) (A) (A) (A) (A) (A)
                 (A) (A) (A) (A) (A) (A) (A) (A) (A) (A) (A) (A)
                 (A) (A) (A) (A) (A) (A) (A) (A) (A) (A) (A) (A)
                 (A) (A) (A) (A) (A) (A) (A) (A) (A) (A) (A) (A)
                 (A) (A) (A) (A) (A) (A) (A) (A) (A) (A) (A) (A)
                 (A) (A) (A) (A) (A) (A) (A) (A) (A) (A) (A) (A)
                 (A) (A) (A) (A) (A) (A) (A) (A) (A) (A) (A) (A)
                 (A) (A) (A) (A) (A) (A) (A) (A) (A) (A) (A) (A)
                 (A) (A) (A) (A) (A) (A) (A) (A) (A) (A) (A) (A)
                 (A) (A) (A) (A) (A) (A) (A) (A) (A) (A) (A) (A)
                 (A) (A) (A) (A) (A) (A) (A) (A) (A) (A) (A) (A)
                 (A) (A) (A) (A) (A) (A) (A) (A) (A) (A) (A) (A)
                 (A) (A) (A) (A) (A) (A) (A) (A) (A) (A) (A) (A)
                 (A) (A) (A) (A) (A) (A) (A) (A) (A) (A) (A) (A)
                 (A) (A) (A) (A) (A) (A) (A) (A) (A) (A) (A) (A)
                 (A) (A) (A) (A) (A) (A) (A) (A) (A) (A) (A) (A)
[...]
 00320,0.00000653,0.00001039,0.00000812,0.00000276,-0.00001304,-0.00001
 714,-0.00000241,0.00001680,0.00001429,-0.00000674,0.00000221,-0.000012
 41,-0.00000469,0.00001149,-0.00000704,0.00000708,-0.00000275,0.0000010
 8,0.00000005,0.00000177,-0.00000254,0.00000052,-0.00000051,-0.00000233
 ,0.00000023,0.00000274,-0.00000128,0.00000026,0.00000127,0.00000158,-0
 .00000044,0.00000224,0.00000020,-0.00000005,-0.00000217,0.00000077,-0.
 00000025,-0.00000128,-0.00000015,0.00000152,-0.00000470,-0.00000285,0.
 00000152,-0.00000325,-0.00000453,-0.00000122,-0.00000302,0.00000168,0.
 00000444,-0.00001402,-0.00002850,-0.00000360,-0.00001346,-0.00000710,0
 .00000133,0.00004883,-0.00015533,0.00007195,-0.00236671,-0.00206960,0.
 00061173,-0.11351427,0.15758522,0.00000262,0.00000796,-0.00000317,0.00
 000064,-0.00000889,0.00001009,-0.00000914,0.00003468,-0.00002261,0.000
 00028,-0.00000634,-0.00000359,0.00003595,-0.00003228,0.00001504,-0.000
 04315,-0.00002549,0.00000472,0.00002443,-0.00000431,-0.00000111,-0.000
 01965,0.00001388,-0.00000473,0.00000457,-0.00000507,0.00000083,-0.0000
 0694,-0.00000146,-0.00000135,0.00000572,-0.00000391,0.00000202,-0.0000
 0337,0.00000013,-0.00000037,0.00000100,0.00000460,-0.00000105,0.000003
 19,-0.00000440,0.00000064,0.00000120,0.00000414,-0.00000020,0.00000315
 ,0.00000053,0.00000085,-0.00000126,-0.00000762,0.00000093,0.00000776,-
 0.00000068,-0.00000205,0.00001211,0.00000361,0.00000412,0.00002405,0.0
 0000426,-0.00000151,-0.00002971,-0.00006824,0.00002738,-0.00000993,0.0
 0002770,0.00000329,-0.00000748,0.00003711,0.00000773,0.00001860,0.0000
 1024,-0.00000371,-0.00000931,-0.00002766,0.00000069,-0.00001433,-0.000
 07721,-0.00002418,0.00001838,-0.00000551,0.00001152,0.00015591,0.00000
 381,0.00005073,-0.00000591,0.00005125,-0.00002711,-0.00028110,0.000325
 91,-0.00016206,0.00022034,-0.00015175,-0.00000064,-0.00068379,0.000701
 46,-0.00070961,-0.00302538,-0.00139987,-0.00472593,0.01687099,-0.01917
 523,-0.01138763,0.08469609,-0.10743653,-0.15539549,-0.00749592,0.00816
 909,0.01039674,-0.00324012,0.00058703,0.00060072,0.00000595,0.00001123
 ,0.00000149,-0.00000219,0.00000372,-0.00000202,0.00000220,0.00000041,0
 .00000622,-0.00000344,-0.00000246,0.00000243,0.00000134,-0.00000456,-0
 .00000353,0.00000250,-0.00000825,-0.00000338,-0.00000162,0.00000537,-0
 .00000026,0.00001141,-0.00000124,0.00000825,-0.00000070,-0.00001113,0.
 00000429,-0.00000125,0.00001046,-0.00000470,0.00000492,-0.00000635,0.0
 0000381,0.00000319,-0.00000165,0.00000433,-0.00000076,0.00000160,0.000
 00013,0.00000041,-0.00000077,0.00000024,-0.00000052,-0.00000079,0.0000
 0031,0.00000136,-0.00000055,0.00000036,0.00000082,0.00000085,0.0000000
 4,0.00000179,-0.00000005,0.00000017,-0.00000046,0.00000138,-0.00000011
 ,0.00000481,0.00000036,-0.00000075,-0.00001492,-0.00000511,0.00001111,
 -0.00000367,-0.00000671,0.00001190,-0.00000490,0.00001579,-0.00002246,
 0.00004518,0.00006385,0.00001069,0.00000270,-0.00000777,-0.00000038,0.
 00078916,-0.00079254,-0.00050695,0.00048072,0.00119476,0.00073340,-0.0
 8934461,0.11711963,0.16036075,-0.00000027,0.00000278,-0.00000075,0.000
 00005,-0.00000097,-0.00000455,0.00000915,-0.00000150,0.00000925,0.0000
 1370,-0.00001684,-0.00000920,-0.00007104,0.00001222,-0.00004796,0.0000
 3206,0.00003448,-0.00002237,-0.00002062,0.00001513,-0.00000747,0.00002
 098,-0.00001456,0.00000633,0.00000055,0.00001330,-0.00000245,0.0000072
 0,-0.00000088,-0.00000174,-0.00000667,-0.00000010,0.00000034,0.0000078
 4,0.00000005,-0.00000028,-0.00000399,-0.00000671,0.00000082,-0.0000048
 7,0.00000458,-0.00000285,0.00000384,-0.00000388,0.00000256,-0.00000743
 ,0.00000424,-0.00000556,0.00000738,0.00000255,-0.00000306,-0.00002671,
 0.00000607,0.00000235,0.00000153,0.00000600,-0.00000963,-0.00003189,-0
 .00001936,-0.00002139,0.00004422,0.00007689,-0.00002443,-0.00001927,0.
 00001892,0.00000992,-0.00002355,0.00000348,-0.00001103,0.00000512,-0.0
 0000088,-0.00001190,0.00001849,0.00000287,0.00000344,0.00000002,-0.000
 00509,-0.00004457,0.00005685,0.00000491,0.00004910,-0.00013290,-0.0000
 2805,-0.00002133,-0.00000125,-0.00005198,0.00002904,0.00073425,0.00000
 125,0.00025747,-0.00018988,0.00004353,0.00039326,0.00145931,0.00514606
 ,0.00150945,-0.00110264,0.00026842,0.00037335,-0.00062159,0.00568736,-
 0.00220498,-0.00112367,-0.00350177,-0.02343277,-0.06736175,0.00185208,
 -0.07088389,0.00777838,0.00208728,0.01651088,-0.00000873,-0.00001573,-
 0.00000210,-0.00000367,-0.00000260,0.00000073,-0.00000178,-0.00000120,
 0.00000014,-0.00000093,0.00000003,-0.00000076,0.00000011,0.00000020,0.
 00000148,0.00000211,0.00000110,0.00000081,-0.00000174,-0.00000529,0.00
 000274,-0.00001018,0.00001608,0.00000061,-0.00000704,-0.00000045,-0.00
 000435,0.00000265,0.00000620,0.00000992,0.00000217,0.00000257,0.000000
 91,-0.00000486,0.00000778,0.00000373,-0.00000136,-0.00000191,0.0000011
 4,0.00000089,-0.00000116,0.00000115,-0.00000006,-0.00000109,0.00000075
 ,0.00000091,-0.00000047,0.00000064,-0.00000016,0.00000081,0.00000060,-
 0.00000053,0.00000056,0.00000164,-0.00000212,-0.00000206,0.00000397,-0
 .00000717,-0.00000162,0.00000912,0.00000110,0.00000478,-0.00000958,-0.
 00000198,-0.00000042,0.00000046,-0.00000692,-0.00000775,-0.00000047,0.
 00000222,-0.00001418,0.00000683,-0.00003876,-0.00001311,0.00000055,-0.
 00035543,-0.00052809,0.00012788,-0.00019256,-0.00013195,-0.00110178,-0
 .00092135,-0.00220526,0.00118185,0.06316764,-0.00000239,0.00000694,0.0
 0000332,0.00001701,-0.00000352,-0.00000197,-0.00001472,0.00001522,0.00
 001029,0.00005981,-0.00002645,-0.00003256,0.00010579,-0.00004883,0.000
 00557,-0.00005718,-0.00004878,0.00002648,0.00002105,0.00000399,-0.0000
 1445,-0.00000586,-0.00000175,0.00000181,0.00000453,0.00000649,0.000005
 51,0.00000179,-0.00000543,0.00000350,0.00000309,-0.00000478,0.00000088
 ,0.00000300,-0.00000085,0.00000129,-0.00000097,-0.00000095,0.00000246,
 -0.00000021,-0.00000082,-0.00000209,0.00000490,0.00000154,0.00000175,-
 0.00000052,0.00000555,-0.00000043,0.00000548,-0.00000136,0.00000295,-0
 .00000973,0.00000280,0.00000007,0.00003018,0.00002106,-0.00000567,0.00
 002653,-0.00000615,-0.00000201,-0.00003764,-0.00003047,-0.00000497,-0.
 00001775,0.00002564,-0.00000732,0.00000017,0.00000213,-0.00003458,0.00
 000873,-0.00003954,-0.00002280,-0.00000216,-0.00001065,0.00002391,-0.0
 0001326,0.00003092,0.00000116,0.00006697,-0.00001127,0.00002398,0.0001
 6026,-0.00005841,0.00008893,-0.00004051,0.00005150,-0.00000245,-0.0005
 4673,0.00074307,-0.00035050,0.00001998,-0.00038220,-0.00044603,0.00519
 239,0.00198193,-0.00346783,0.00031544,-0.00112811,0.00019322,0.0055740
 0,0.00254589,0.00004981,0.00388924,0.00563948,0.01594046,0.00177321,-0
 .04965817,-0.03270442,-0.00524628,0.00216361,-0.01876800,0.00000348,-0
 .00000206,-0.00000146,-0.00000507,-0.00000038,0.00000078,0.00000677,-0
 .00000007,0.00000215,-0.00000488,-0.00000453,-0.00000015,0.00000063,0.
 00000079,0.00000234,-0.00000264,-0.00000618,0.00000160,-0.00001096,0.0
 0000838,0.00000419,0.00001532,0.00000932,0.00000234,-0.00001085,-0.000
 01529,-0.00000062,-0.00002024,0.00003713,0.00000580,-0.00000347,-0.000
 01952,-0.00000030,0.00001464,-0.00001803,0.00000438,-0.00000256,-0.000
 00220,-0.00000477,0.00000198,-0.00000293,-0.00000156,0.00000024,-0.000
 00190,-0.00000065,0.00000117,-0.00000062,-0.00000036,0.00000002,0.0000
 0042,-0.00000055,0.00000023,-0.00000016,-0.00000025,-0.00000177,-0.000
 00104,0.00000010,-0.00000145,-0.00000062,0.00000318,-0.00000844,-0.000
 00517,0.00000262,0.00000223,0.00000049,-0.00000932,-0.00000121,0.00000
 985,-0.00000365,0.00000711,-0.00002698,0.00001293,-0.00005315,0.000008
 56,0.00000339,-0.00052601,-0.00055575,0.00013262,0.00022560,0.00012540
 ,0.00073626,-0.00244149,-0.00188677,0.00045993,-0.00618519,0.04259919,
 0.00000153,0.00000735,0.00000055,0.00000825,-0.00000485,0.00000802,-0.
 00001543,0.00003228,-0.00001100,0.00003484,-0.00001412,-0.00001012,0.0
 0020125,-0.00010816,-0.00000842,-0.00013839,-0.00009319,0.00003251,0.0
 0005415,-0.00000931,0.00000779,-0.00004731,0.00003154,-0.00001572,0.00
 001066,-0.00001099,0.00000718,-0.00001438,-0.00000552,0.00000257,0.000
 01380,-0.00001092,0.00000151,-0.00000735,0.00000067,0.00000123,0.00000
 321,0.00000957,-0.00000056,0.00000754,-0.00000884,0.00000405,0.0000054
 2,0.00000798,-0.00000174,0.00000967,0.00000395,0.00000382,-0.00000203,
 -0.00001632,0.00000750,0.00001149,-0.00000102,0.00000165,0.00004200,0.
 00001944,0.00001468,0.00008637,0.00001414,0.00003293,-0.00012954,-0.00
 018447,0.00003717,0.00002685,-0.00000877,-0.00000176,0.00002944,0.0000
 1259,0.00002841,0.00000316,0.00002910,0.00003589,0.00000965,0.00001023
 ,-0.00001612,0.00002123,-0.00002509,0.00000481,-0.00007407,0.00001401,
 -0.00010118,0.00039800,-0.00001761,-0.00001275,-0.00008058,0.00012890,
 -0.00006512,-0.00123974,0.00066646,0.00017582,0.00023256,-0.00022046,-
 0.00048739,0.00157462,-0.00354156,-0.00009565,0.00037084,0.00018607,0.
 00058652,-0.00249290,0.00028093,0.00151931,-0.00031158,-0.00308089,-0.
 00666065,-0.07089114,-0.03273123,-0.32374823,-0.00642192,0.00001628,-0
 .01245688,0.00001630,0.00001997,-0.00000110,-0.00000472,0.00000884,-0.
 00000174,0.00000474,-0.00000063,0.00000519,-0.00000516,-0.00000262,0.0
 0000151,0.00000202,-0.00000341,-0.00000395,0.00000066,-0.00001076,-0.0
 0000181,-0.00000599,0.00001129,0.00000113,0.00002122,-0.00001068,0.000
 01015,-0.00000544,-0.00001512,0.00000106,-0.00000051,0.00002423,-0.000
 02335,0.00000491,-0.00002525,-0.00000314,0.00001945,-0.00001401,0.0000
 1379,-0.00000213,0.00000356,-0.00000256,0.00000167,-0.00000257,-0.0000
 0149,-0.00000059,-0.00000203,-0.00000088,0.00000262,-0.00000117,-0.000
 00038,0.00000195,0.00000118,-0.00000137,0.00000424,-0.00000055,-0.0000
 0178,-0.00000058,0.00000388,-0.00000520,0.00001014,0.00000279,-0.00001
 165,-0.00000784,-0.00001101,0.00001809,-0.00000405,-0.00000207,0.00000
 943,-0.00000274,-0.00000924,0.00000905,-0.00001639,0.00002846,-0.00000
 879,0.00006755,0.00000238,-0.00001712,0.00012706,0.00017605,-0.0001172
 8,0.00000823,-0.00017131,-0.00042853,0.00046430,0.00103918,0.00038263,
 0.07715527,0.03678145,0.34090211,-0.00002044,0.00002404,0.00001159,0.0
 0008143,-0.00003132,0.00004451,-0.00013435,0.00007930,0.00001234,0.000
 02985,-0.00009049,-0.00009321,0.00036608,0.00034527,-0.00002663,0.0002
 8602,-0.00006965,0.00014230,-0.00003368,0.00001994,-0.00015052,0.00003
 993,-0.00006496,-0.00000222,0.00000987,0.00004061,0.00000013,0.0000293
 0,-0.00000441,0.00000524,-0.00001743,0.00000224,-0.00000558,0.00002463
 ,0.00000270,0.00000337,-0.00000535,-0.00002825,0.00000230,-0.00002073,
 0.00002111,0.00000442,0.00001660,-0.00002534,-0.00000456,-0.00001609,0
 .00000920,-0.00001991,0.00002639,0.00001157,0.00001814,-0.00010146,0.0
 0003058,-0.00001043,-0.00000332,-0.00001669,-0.00005184,-0.00004074,0.
 00000513,-0.00003643,0.00018122,0.00014106,-0.00007458,-0.00001665,0.0
 0000224,-0.00002144,0.00000450,0.00002021,-0.00001127,0.00001431,0.000
 01007,0.00000656,0.00001497,-0.00001190,-0.00001609,0.00002064,-0.0000
 0796,-0.00000302,0.00004032,0.00004809,-0.00002226,0.00008614,-0.00019
 951,0.00064843,-0.00007769,-0.00011238,-0.00036235,-0.00160785,-0.0004
 8433,0.00056451,0.00024568,-0.00012892,-0.00023110,-0.00311200,0.00282
 590,-0.00268446,0.00363659,0.00206639,-0.00180311,-0.00008276,-0.00049
 442,0.00069620,0.00223431,0.00455909,0.00141679,-0.00703936,0.00669866
 ,-0.00818842,-0.22062530,0.11989125,-0.08178185,-0.00000699,-0.0000603
 1,0.00001263,-0.00001556,-0.00000758,0.00000719,0.00000528,-0.00000600
 ,0.00000583,0.00000064,-0.00000090,-0.00000160,0.00000783,0.00000154,0
 .00001406,-0.00000297,-0.00001410,-0.00000886,-0.00001350,0.00000606,-
 0.00000392,0.00004144,-0.00001688,0.00002332,0.00000007,-0.00001534,-0
 .00000062,-0.00034926,-0.00012558,-0.00002219,-0.00002354,-0.00000757,
 0.00004264,0.00005287,-0.00005152,0.00002544,-0.00000281,-0.00001333,-
 0.00000423,0.00000231,-0.00000280,0.00000097,0.00000160,-0.00000198,-0
 .00000029,-0.00000018,-0.00000044,-0.00000007,0.00000004,0.00000058,0.
 00000022,0.00000073,0.00000052,-0.00000050,-0.00000563,-0.00000491,0.0
 0000256,-0.00000574,-0.00000044,0.00000218,-0.00000905,-0.00000294,-0.
 00000092,-0.00000465,-0.00000429,0.00000430,-0.00000383,-0.00000351,0.
 00000325,-0.00000625,-0.00000852,0.00000223,-0.00002077,0.00003407,-0.
 00003176,-0.00008339,0.00030673,0.00001832,-0.00048213,-0.00047751,0.0
 0014191,-0.00051077,0.00026597,-0.00038176,-0.00106343,-0.00228763,0.0
 0085363,0.22806405,-0.00001219,0.00001106,0.00000414,0.00003210,-0.000
 02103,0.00002445,-0.00007589,0.00006101,-0.00000400,0.00015044,-0.0000
 0396,-0.00010610,-0.00012429,0.00002678,-0.00002175,0.00039391,-0.0000
 7996,0.00026581,-0.00007094,0.00004977,0.00006710,0.00011273,-0.000123
 79,0.00007064,-0.00001200,0.00005871,-0.00002101,0.00005213,0.00000063
 ,0.00001373,-0.00003348,0.00000748,-0.00000732,0.00003129,0.00000152,0
 .00000012,-0.00000785,-0.00003523,0.00000767,-0.00002795,0.00002504,-0
 .00000836,0.00001522,-0.00002540,0.00000374,-0.00002614,0.00000227,-0.
 00000963,0.00002199,0.00002271,-0.00000810,-0.00011475,0.00001860,-0.0
 0003951,0.00002011,0.00017076,0.00003596,-0.00003042,-0.00006831,-0.00
 000644,-0.00004654,-0.00017755,0.00008136,-0.00001002,-0.00001026,0.00
 001034,0.00001152,-0.00003027,0.00003620,-0.00003530,0.00004741,-0.000
 00692,-0.00002935,-0.00001315,-0.00005375,0.00002296,-0.00004157,-0.00
 003652,0.00012434,0.00006475,0.00014048,-0.00008846,0.00006224,-0.0007
 0734,-0.00043813,0.00010908,0.00008814,-0.00047431,-0.00132450,-0.0000
 9966,-0.00002931,0.00019133,0.00018349,-0.00374523,0.00408745,-0.00093
 837,0.00269221,0.00423183,-0.00210711,-0.00068247,-0.00048019,-0.00018
 241,0.00433115,0.00262483,-0.00416671,0.01461272,-0.00436250,0.0082841
 1,0.11884496,-0.11702462,0.04799305,-0.00000938,-0.00007662,0.00001593
 ,-0.00001904,-0.00001852,0.00000064,0.00000083,-0.00000363,0.00000007,
 0.00000344,0.00000114,-0.00000150,0.00000276,0.00000354,0.00001148,0.0
 0000153,-0.00000298,-0.00000322,-0.00000108,0.00000519,-0.00000249,0.0
 0001942,-0.00000234,0.00000872,0.00000662,0.00000223,0.00000272,-0.000
 12265,0.00015869,0.00017258,-0.00000839,-0.00000082,0.00002259,0.00002
 123,-0.00008860,-0.00008810,-0.00000075,-0.00001564,-0.00000005,0.0000
 0037,-0.00000109,-0.00000002,0.00000189,-0.00000070,0.00000062,-0.0000
 0179,-0.00000002,0.00000016,-0.00000145,0.00000009,0.00000142,-0.00000
 255,0.00000142,0.00000266,-0.00000902,-0.00001112,0.00000889,-0.000004
 99,-0.00001254,0.00001009,0.00000264,0.00000653,-0.00002102,-0.0000037
 6,0.00000254,-0.00000451,-0.00000784,0.00000588,-0.00001287,0.00001446
 ,0.00000864,0.00000443,-0.00008022,-0.00009164,-0.00003479,-0.00006118
 ,0.00027468,-0.00018549,-0.00051543,-0.00064815,0.00026493,0.00056749,
 -0.00042821,0.00041568,-0.00256246,-0.00202860,0.00080099,-0.13258546,
 0.11490767,0.00000215,0.00001590,-0.00000768,0.00000915,-0.00002395,0.
 00003188,-0.00000691,0.00006805,-0.00003615,-0.00015491,-0.00004782,0.
 00004013,-0.00007699,0.00030636,0.00014816,0.00047538,-0.00014892,0.00
 005457,-0.00012209,-0.00004888,-0.00005042,0.00014790,-0.00007747,0.00
 004487,-0.00004406,0.00001075,-0.00000545,0.00003676,0.00002304,-0.000
 01089,-0.00003736,0.00003141,-0.00000509,0.00001290,-0.00000059,-0.000
 00145,-0.00000518,-0.00001902,0.00000181,-0.00001353,0.00002056,-0.000
 01340,-0.00002275,-0.00001771,0.00001460,-0.00001566,-0.00001510,0.000
 00095,-0.00000059,0.00004072,-0.00001248,0.00001983,0.00001951,0.00001
 008,0.00000578,-0.00014344,0.00002771,-0.00016380,-0.00005753,-0.00004
 589,0.00018636,0.00063743,-0.00016732,-0.00008949,0.00006362,-0.000013
 68,0.00000247,0.00000355,-0.00000440,0.00004094,-0.00000306,0.00000236
 ,0.00004180,-0.00002934,0.00000514,0.00000265,-0.00000618,0.00000592,0
 .00000337,-0.00002455,-0.00000905,-0.00003859,-0.00032981,0.00083823,0
 .00069297,-0.00024622,-0.00011916,-0.00174192,0.00121918,-0.00146197,0
 .00025361,-0.00023071,0.00019802,-0.02230382,0.01544927,-0.00610918,-0
 .00162031,-0.00242154,-0.00503155,0.00056082,-0.00041546,-0.00095554,0
 .00127429,-0.00375117,-0.00108793,0.01470399,-0.00973892,0.01077055,-0
 .08314779,0.04825619,-0.09401679,-0.00004998,-0.00004338,0.00001240,0.
 00002328,-0.00002426,-0.00000359,-0.00000265,-0.00000690,0.00000642,0.
 00001021,0.00000364,0.00000332,0.00000196,-0.00000336,0.00000389,0.000
 00126,-0.00000971,-0.00000653,0.00001089,0.00001179,-0.00001892,0.0000
 0590,0.00000307,0.00002625,0.00002814,0.00000990,0.00001569,-0.0000358
 7,-0.00004701,-0.00003576,0.00002142,0.00002548,-0.00000084,0.00002557
 ,0.00001184,-0.00000179,0.00001008,0.00000001,0.00000432,-0.00000637,0
 .00000981,0.00000175,0.00000135,0.00000748,0.00000047,-0.00000872,0.00
 000404,-0.00000012,-0.00000473,-0.00000454,0.00000164,-0.00001024,0.00
 000038,0.00000021,0.00000616,-0.00000805,0.00000454,-0.00002089,-0.000
 00153,-0.00000283,-0.00002214,0.00000103,-0.00000560,-0.00000096,-0.00
 001391,0.00001785,-0.00000033,-0.00001081,0.00000525,0.00000248,-0.000
 01302,0.00000129,0.00000880,0.00003492,0.00001849,-0.00123378,0.000751
 75,-0.00026459,0.00012348,0.00026764,0.00001478,0.00070512,-0.00050272
 ,0.00034203,0.00022272,0.00134834,0.00045733,0.09132050,-0.05017007,0.
 09637312\\-0.00000055,-0.00000017,-0.00000049,0.00000058,-0.00000140,0
 .00000290,-0.00000087,-0.00000186,-0.00000008,0.00000071,0.00000254,-0
 .00000030,0.00000060,-0.00000134,-0.00000137,0.00000306,0.00000176,0.0
 0000179,-0.00000351,-0.00000174,0.00000024,-0.00000210,-0.00000113,0.0
 0000104,0.00000025,0.00000095,0.00000058,0.00000028,0.00000116,0.00000
 065,0.00000037,-0.00000171,0.00000122,0.00000063,0.00000082,0.00000058
 ,-0.00000069,0.00000048,0.00000061,-0.00000010,-0.00000015,0.00000011,
 0.00000168,0.00000138,0.,-0.00000064,-0.00000025,-0.00000036,-0.000000
 63,-0.00000152,-0.00000057,0.00000004,0.00000238,0.00000040,0.00000211
 ,-0.00000061,0.00000190,0.00000059,0.00000120,-0.00000305,-0.00000286,
 -0.00000301,0.00000370,0.00000062,-0.00000064,-0.00000308,0.00000038,-
 0.00000108,0.00000091,-0.00000100,0.00000071,-0.00000049,-0.00000070,-
 0.00000075,-0.00000336,0.00000204,-0.00000105,-0.00000046,-0.00000149,
 0.00000291,-0.00000154,0.00000797,-0.00000053,-0.00000178,-0.00000257,
 0.00000292,-0.00000258,-0.00000232,-0.00000075,-0.00000405,-0.00000054
 ,-0.00000147,0.00000579,-0.00000190,0.00000157,-0.00000220,-0.00000041
 ,0.00000016,0.00000146,0.00000019,-0.00000031,-0.00000139,0.00000048,0
 .00000045,0.00000042,-0.00000088,0.00000209,-0.00000052,0.00000070,0.0
 0000010,-0.00000087,0.00000137,0.00000075,0.00000049,-0.00000060,0.000
 00012,0.00000027,0.00000043,-0.00000126,0.00000078,0.00000003,-0.00000
 047,0.00000159,-0.00000058,-0.00000176,0.00000149,-0.00000048,-0.00000
 057,0.00000098,-0.00000098,0.00000050,0.00000079,-0.00000012,-0.000000
 66,0.00000077,0.00000004,-0.00000016,0.00000068,0.00000031,0.00000059,
 0.00000096,-0.00000004,-0.00000024,0.00000133,-0.00000027,0.00000015,0
 .00000103,0.00000010,0.,0.00000158,-0.00000020,0.00000033,0.00000177,-
 0.00000014,0.00000046,0.00000119,0.00000020,0.00000052,0.00000061,0.00
 000007,0.00000019,0.00000001,0.00000010,0.00000015,-0.00000056,0.00000
 011,0.00000018,-0.00000065,0.00000009,-0.00000052,-0.00000146,-0.00000
 042,-0.00000082,-0.00000098,0.00000015,-0.00000158,-0.00000132,0.00000
 011,-0.00000045,-0.00000143,0.00000004,0.00000023,-0.00000175,0.000000
 21,-0.00000019,-0.00000114,0.,-0.00000020,-0.00000040,0.00000010,0.,-0
 .00000102,0.00000016,0.00000082,-0.00000088,0.00000044,0.00000091,-0.0
 0000053,0.00000029,0.00000085,0.00000003\\\@
 The archive entry for this job was punched.


 IF OTHER PEOPLE ARE GOING TO TALK, CONVERSATION IS SIMPLY IMPOSSIBLE.

                                               -- WHISTLER'S PRINCIPLE
 Job cpu time:       7 days  9 hours 54 minutes 58.1 seconds.
 Elapsed time:       0 days  6 hours 54 minutes 12.1 seconds.
 File lengths (MBytes):  RWF=   5561 Int=      0 D2E=      0 Chk=     90 Scr=      1
 Normal termination of Gaussian 16 at Tue Dec  5 07:50:00 2023.
