 Entering Gaussian System, Link 0=g16
 Input=/home/exlonk/in_progress/3930.inp
 Output=/home/exlonk/in_progress/3930.log
 Initial command:
 /opt/gaussian/g16-c01/g16/l1.exe "/lustre/tmp/slurm/2182759/Gau-41433.inp" -scrdir="/lustre/tmp/slurm/2182759/"
 Default CPUs for threads: 0-4,7-9,13-15,19-20,24-28,31-33,37-39,43-44
 Default is to use a total of  26 processors:
                               26 via shared-memory
                                1 via Linda
 Entering Link 1 = /opt/gaussian/g16-c01/g16/l1.exe PID=     41434.
  
 Copyright (c) 1988-2019, Gaussian, Inc.  All Rights Reserved.
  
 This is part of the Gaussian(R) 16 program.  It is based on
 the Gaussian(R) 09 system (copyright 2009, Gaussian, Inc.),
 the Gaussian(R) 03 system (copyright 2003, Gaussian, Inc.),
 the Gaussian(R) 98 system (copyright 1998, Gaussian, Inc.),
 the Gaussian(R) 94 system (copyright 1995, Gaussian, Inc.),
 the Gaussian 92(TM) system (copyright 1992, Gaussian, Inc.),
 the Gaussian 90(TM) system (copyright 1990, Gaussian, Inc.),
 the Gaussian 88(TM) system (copyright 1988, Gaussian, Inc.),
 the Gaussian 86(TM) system (copyright 1986, Carnegie Mellon
 University), and the Gaussian 82(TM) system (copyright 1983,
 Carnegie Mellon University). Gaussian is a federally registered
 trademark of Gaussian, Inc.
  
 This software contains proprietary and confidential information,
 including trade secrets, belonging to Gaussian, Inc.
  
 This software is provided under written license and may be
 used, copied, transmitted, or stored only in accord with that
 written license.
  
 The following legend is applicable only to US Government
 contracts under FAR:
  
                    RESTRICTED RIGHTS LEGEND
  
 Use, reproduction and disclosure by the US Government is
 subject to restrictions as set forth in subparagraphs (a)
 and (c) of the Commercial Computer Software - Restricted
 Rights clause in FAR 52.227-19.
  
 Gaussian, Inc.
 340 Quinnipiac St., Bldg. 40, Wallingford CT 06492
  
  
 ---------------------------------------------------------------
 Warning -- This program may not be used in any manner that
 competes with the business of Gaussian, Inc. or will provide
 assistance to any competitor of Gaussian, Inc.  The licensee
 of this program is prohibited from giving any competitor of
 Gaussian, Inc. access to this program.  By using this program,
 the user acknowledges that Gaussian, Inc. is engaged in the
 business of creating and licensing software in the field of
 computational chemistry and represents and warrants to the
 licensee that it is not a competitor of Gaussian, Inc. and that
 it will not use this program in any manner prohibited above.
 ---------------------------------------------------------------
  

 Cite this work as:
 Gaussian 16, Revision C.01,
 M. J. Frisch, G. W. Trucks, H. B. Schlegel, G. E. Scuseria, 
 M. A. Robb, J. R. Cheeseman, G. Scalmani, V. Barone, 
 G. A. Petersson, H. Nakatsuji, X. Li, M. Caricato, A. V. Marenich, 
 J. Bloino, B. G. Janesko, R. Gomperts, B. Mennucci, H. P. Hratchian, 
 J. V. Ortiz, A. F. Izmaylov, J. L. Sonnenberg, D. Williams-Young, 
 F. Ding, F. Lipparini, F. Egidi, J. Goings, B. Peng, A. Petrone, 
 T. Henderson, D. Ranasinghe, V. G. Zakrzewski, J. Gao, N. Rega, 
 G. Zheng, W. Liang, M. Hada, M. Ehara, K. Toyota, R. Fukuda, 
 J. Hasegawa, M. Ishida, T. Nakajima, Y. Honda, O. Kitao, H. Nakai, 
 T. Vreven, K. Throssell, J. A. Montgomery, Jr., J. E. Peralta, 
 F. Ogliaro, M. J. Bearpark, J. J. Heyd, E. N. Brothers, K. N. Kudin, 
 V. N. Staroverov, T. A. Keith, R. Kobayashi, J. Normand, 
 K. Raghavachari, A. P. Rendell, J. C. Burant, S. S. Iyengar, 
 J. Tomasi, M. Cossi, J. M. Millam, M. Klene, C. Adamo, R. Cammi, 
 J. W. Ochterski, R. L. Martin, K. Morokuma, O. Farkas, 
 J. B. Foresman, and D. J. Fox, Gaussian, Inc., Wallingford CT, 2019.
 
 ******************************************
 Gaussian 16:  EM64L-G16RevC.01  3-Jul-2019
                 5-Dec-2023 
 ******************************************
 %nproc=26
 Will use up to   26 processors via shared memory.
 %mem=16GB
 %chk=/home/exlonk/in_progress/3930.chk
 ------------------------------
 #p MN15/6-311++G(d,p) opt freq
 ------------------------------
 1/18=20,19=15,26=3,38=1/1,3;
 2/9=110,12=2,17=6,18=5,40=1/2;
 3/5=4,6=6,7=1111,11=2,25=1,30=1,71=1,74=-73/1,2,3;
 4//1;
 5/5=2,38=5/2;
 6/7=2,8=2,9=2,10=2,28=1/1;
 7//1,2,3,16;
 1/18=20,19=15,26=3/3(2);
 2/9=110/2;
 99//99;
 2/9=110/2;
 3/5=4,6=6,7=1111,11=2,25=1,30=1,71=1,74=-73/1,2,3;
 4/5=5,16=3,69=1/1;
 5/5=2,38=5/2;
 7//1,2,3,16;
 1/18=20,19=15,26=3/3(-5);
 2/9=110/2;
 6/7=2,8=2,9=2,10=2,19=2,28=1/1;
 99/9=1/99;
 Leave Link    1 at Tue Dec  5 08:30:18 2023, MaxMem=  2147483648 cpu:               7.3 elap:               0.3
 (Enter /opt/gaussian/g16-c01/g16/l101.exe)
 ---------------
 name file: 3930
 ---------------
 Symbolic Z-matrix:
 Charge =  0 Multiplicity = 1
 O                     5.0531    2.2149    1.7535 
 O                    -1.7428   -0.0826    0.0562 
 N                     5.9328   -2.0283   -0.3283 
 N                    -6.2796   -1.6541    0.3023 
 N                     1.3967    2.5423   -0.1612 
 N                    -1.4461    2.6065   -0.1255 
 C                     5.0921   -0.9126   -0.1348 
 C                    -5.3567   -0.618     0.0485 
 C                     5.5336   -3.1031   -1.2149 
 C                     7.2133   -2.1081    0.3461 
 C                    -7.7035   -1.4166    0.1732 
 C                    -5.8153   -2.9737    0.682 
 C                     5.4845    0.1164    0.7214 
 C                    -3.9883   -0.856     0.1764 
 C                     3.8676   -0.8386   -0.7987 
 C                    -5.8128    0.6448   -0.3293 
 C                     4.5745   -4.038    -0.5036 
 C                     8.2482   -1.2877   -0.3995 
 C                    -8.1531   -1.6979   -1.2477 
 C                    -5.6741   -3.0639    2.1893 
 C                     3.428     1.2932    0.2494 
 C                    -3.532     1.4318   -0.4516 
 C                     4.6525    1.2193    0.9134 
 C                    -3.0759    0.1689   -0.0737 
 C                     3.0355    0.2643   -0.6066 
 C                    -4.9004    1.6698   -0.5794 
 C                     2.5445    2.4358    0.4361 
 C                    -2.5857    2.5278   -0.7201 
 C                     0.6756    3.7685    0.1689 
 C                    -0.6664    3.7748   -0.5416 
 H                     6.4159   -3.6857   -1.5111 
 H                     5.1219   -2.7393   -2.163 
 H                     7.5572   -3.1508    0.3621 
 H                     7.1548   -1.8308    1.4045 
 H                    -8.2422   -2.1112    0.8319 
 H                    -8.0243   -0.4297    0.5212 
 H                    -6.5646   -3.7172    0.3784 
 H                    -4.9082   -3.2945    0.1601 
 H                     6.4245    0.1049    1.262 
 H                    -3.5835   -1.8133    0.4849 
 H                     3.5052   -1.6011   -1.479 
 H                    -6.8593    0.8925   -0.4641 
 H                     5.037    -4.4601    0.3957 
 H                     3.6483   -3.5462   -0.194 
 H                     4.3049   -4.8703   -1.1619 
 H                     8.3551   -1.6393   -1.4317 
 H                     7.9997   -0.2236   -0.441 
 H                     9.224    -1.3825    0.088 
 H                    -7.6751   -1.0236   -1.9653 
 H                    -7.9135   -2.7241   -1.5461 
 H                    -9.2365   -1.5673   -1.3337 
 H                    -4.9219   -2.3657    2.5696 
 H                    -6.6205   -2.8378    2.692 
 H                    -5.3721   -4.075     2.4805 
 H                     2.0878    0.2934   -1.1379 
 H                    -5.2688    2.6487   -0.8756 
 H                     2.8852    3.2355    1.1181 
 H                    -2.9303    3.3116   -1.4199 
 H                     0.513     3.8311    1.2524 
 H                     1.252     4.647    -0.1451 
 H                    -0.5035    3.7524   -1.6268 
 H                    -1.2006    4.6991   -0.2904 
 H                     5.9252    1.9928    2.1219 
 H                    -1.6149   -1.009     0.3229 
 
 ITRead=  0  0  0  0  0  0  0  0  0  0  0  0  0  0  0  0  0  0  0  0
 ITRead=  0  0  0  0  0  0  0  0  0  0  0  0  0  0  0  0  0  0  0  0
 ITRead=  0  0  0  0  0  0  0  0  0  0  0  0  0  0  0  0  0  0  0  0
 ITRead=  0  0  0  0
 MicOpt= -1 -1 -1 -1 -1 -1 -1 -1 -1 -1 -1 -1 -1 -1 -1 -1 -1 -1 -1 -1
 MicOpt= -1 -1 -1 -1 -1 -1 -1 -1 -1 -1 -1 -1 -1 -1 -1 -1 -1 -1 -1 -1
 MicOpt= -1 -1 -1 -1 -1 -1 -1 -1 -1 -1 -1 -1 -1 -1 -1 -1 -1 -1 -1 -1
 MicOpt= -1 -1 -1 -1
 NAtoms=     64 NQM=       64 NQMF=       0 NMMI=      0 NMMIF=      0
                NMic=       0 NMicF=      0.
                    Isotopes and Nuclear Properties:
 (Nuclear quadrupole moments (NQMom) in fm**2, nuclear magnetic moments (NMagM)
  in nuclear magnetons)

  Atom         1           2           3           4           5           6           7           8           9          10
 IAtWgt=          16          16          14          14          14          14          12          12          12          12
 AtmWgt=  15.9949146  15.9949146  14.0030740  14.0030740  14.0030740  14.0030740  12.0000000  12.0000000  12.0000000  12.0000000
 NucSpn=           0           0           2           2           2           2           0           0           0           0
 AtZEff=  -0.0000000  -0.0000000  -0.0000000  -0.0000000  -0.0000000  -0.0000000  -0.0000000  -0.0000000  -0.0000000  -0.0000000
 NQMom=    0.0000000   0.0000000   2.0440000   2.0440000   2.0440000   2.0440000   0.0000000   0.0000000   0.0000000   0.0000000
 NMagM=    0.0000000   0.0000000   0.4037610   0.4037610   0.4037610   0.4037610   0.0000000   0.0000000   0.0000000   0.0000000
 AtZNuc=   8.0000000   8.0000000   7.0000000   7.0000000   7.0000000   7.0000000   6.0000000   6.0000000   6.0000000   6.0000000

  Atom        11          12          13          14          15          16          17          18          19          20
 IAtWgt=          12          12          12          12          12          12          12          12          12          12
 AtmWgt=  12.0000000  12.0000000  12.0000000  12.0000000  12.0000000  12.0000000  12.0000000  12.0000000  12.0000000  12.0000000
 NucSpn=           0           0           0           0           0           0           0           0           0           0
 AtZEff=  -0.0000000  -0.0000000  -0.0000000  -0.0000000  -0.0000000  -0.0000000  -0.0000000  -0.0000000  -0.0000000  -0.0000000
 NQMom=    0.0000000   0.0000000   0.0000000   0.0000000   0.0000000   0.0000000   0.0000000   0.0000000   0.0000000   0.0000000
 NMagM=    0.0000000   0.0000000   0.0000000   0.0000000   0.0000000   0.0000000   0.0000000   0.0000000   0.0000000   0.0000000
 AtZNuc=   6.0000000   6.0000000   6.0000000   6.0000000   6.0000000   6.0000000   6.0000000   6.0000000   6.0000000   6.0000000

  Atom        21          22          23          24          25          26          27          28          29          30
 IAtWgt=          12          12          12          12          12          12          12          12          12          12
 AtmWgt=  12.0000000  12.0000000  12.0000000  12.0000000  12.0000000  12.0000000  12.0000000  12.0000000  12.0000000  12.0000000
 NucSpn=           0           0           0           0           0           0           0           0           0           0
 AtZEff=  -0.0000000  -0.0000000  -0.0000000  -0.0000000  -0.0000000  -0.0000000  -0.0000000  -0.0000000  -0.0000000  -0.0000000
 NQMom=    0.0000000   0.0000000   0.0000000   0.0000000   0.0000000   0.0000000   0.0000000   0.0000000   0.0000000   0.0000000
 NMagM=    0.0000000   0.0000000   0.0000000   0.0000000   0.0000000   0.0000000   0.0000000   0.0000000   0.0000000   0.0000000
 AtZNuc=   6.0000000   6.0000000   6.0000000   6.0000000   6.0000000   6.0000000   6.0000000   6.0000000   6.0000000   6.0000000

  Atom        31          32          33          34          35          36          37          38          39          40
 IAtWgt=           1           1           1           1           1           1           1           1           1           1
 AtmWgt=   1.0078250   1.0078250   1.0078250   1.0078250   1.0078250   1.0078250   1.0078250   1.0078250   1.0078250   1.0078250
 NucSpn=           1           1           1           1           1           1           1           1           1           1
 AtZEff=  -0.0000000  -0.0000000  -0.0000000  -0.0000000  -0.0000000  -0.0000000  -0.0000000  -0.0000000  -0.0000000  -0.0000000
 NQMom=    0.0000000   0.0000000   0.0000000   0.0000000   0.0000000   0.0000000   0.0000000   0.0000000   0.0000000   0.0000000
 NMagM=    2.7928460   2.7928460   2.7928460   2.7928460   2.7928460   2.7928460   2.7928460   2.7928460   2.7928460   2.7928460
 AtZNuc=   1.0000000   1.0000000   1.0000000   1.0000000   1.0000000   1.0000000   1.0000000   1.0000000   1.0000000   1.0000000

  Atom        41          42          43          44          45          46          47          48          49          50
 IAtWgt=           1           1           1           1           1           1           1           1           1           1
 AtmWgt=   1.0078250   1.0078250   1.0078250   1.0078250   1.0078250   1.0078250   1.0078250   1.0078250   1.0078250   1.0078250
 NucSpn=           1           1           1           1           1           1           1           1           1           1
 AtZEff=  -0.0000000  -0.0000000  -0.0000000  -0.0000000  -0.0000000  -0.0000000  -0.0000000  -0.0000000  -0.0000000  -0.0000000
 NQMom=    0.0000000   0.0000000   0.0000000   0.0000000   0.0000000   0.0000000   0.0000000   0.0000000   0.0000000   0.0000000
 NMagM=    2.7928460   2.7928460   2.7928460   2.7928460   2.7928460   2.7928460   2.7928460   2.7928460   2.7928460   2.7928460
 AtZNuc=   1.0000000   1.0000000   1.0000000   1.0000000   1.0000000   1.0000000   1.0000000   1.0000000   1.0000000   1.0000000

  Atom        51          52          53          54          55          56          57          58          59          60
 IAtWgt=           1           1           1           1           1           1           1           1           1           1
 AtmWgt=   1.0078250   1.0078250   1.0078250   1.0078250   1.0078250   1.0078250   1.0078250   1.0078250   1.0078250   1.0078250
 NucSpn=           1           1           1           1           1           1           1           1           1           1
 AtZEff=  -0.0000000  -0.0000000  -0.0000000  -0.0000000  -0.0000000  -0.0000000  -0.0000000  -0.0000000  -0.0000000  -0.0000000
 NQMom=    0.0000000   0.0000000   0.0000000   0.0000000   0.0000000   0.0000000   0.0000000   0.0000000   0.0000000   0.0000000
 NMagM=    2.7928460   2.7928460   2.7928460   2.7928460   2.7928460   2.7928460   2.7928460   2.7928460   2.7928460   2.7928460
 AtZNuc=   1.0000000   1.0000000   1.0000000   1.0000000   1.0000000   1.0000000   1.0000000   1.0000000   1.0000000   1.0000000

  Atom        61          62          63          64
 IAtWgt=           1           1           1           1
 AtmWgt=   1.0078250   1.0078250   1.0078250   1.0078250
 NucSpn=           1           1           1           1
 AtZEff=  -0.0000000  -0.0000000  -0.0000000  -0.0000000
 NQMom=    0.0000000   0.0000000   0.0000000   0.0000000
 NMagM=    2.7928460   2.7928460   2.7928460   2.7928460
 AtZNuc=   1.0000000   1.0000000   1.0000000   1.0000000
 Leave Link  101 at Tue Dec  5 08:30:19 2023, MaxMem=  2147483648 cpu:               8.1 elap:               0.5
 (Enter /opt/gaussian/g16-c01/g16/l103.exe)

 GradGradGradGradGradGradGradGradGradGradGradGradGradGradGradGradGradGrad
 Berny optimization.
 Initialization pass.
                           ----------------------------
                           !    Initial Parameters    !
                           ! (Angstroms and Degrees)  !
 --------------------------                            --------------------------
 ! Name  Definition              Value          Derivative Info.                !
 --------------------------------------------------------------------------------
 ! R1    R(1,23)                 1.3629         estimate D2E/DX2                !
 ! R2    R(1,63)                 0.9724         estimate D2E/DX2                !
 ! R3    R(2,24)                 1.3628         estimate D2E/DX2                !
 ! R4    R(2,64)                 0.9725         estimate D2E/DX2                !
 ! R5    R(3,7)                  1.4103         estimate D2E/DX2                !
 ! R6    R(3,9)                  1.4493         estimate D2E/DX2                !
 ! R7    R(3,10)                 1.4494         estimate D2E/DX2                !
 ! R8    R(4,8)                  1.4106         estimate D2E/DX2                !
 ! R9    R(4,11)                 1.4493         estimate D2E/DX2                !
 ! R10   R(4,12)                 1.4495         estimate D2E/DX2                !
 ! R11   R(5,27)                 1.2983         estimate D2E/DX2                !
 ! R12   R(5,29)                 1.4603         estimate D2E/DX2                !
 ! R13   R(6,28)                 1.2878         estimate D2E/DX2                !
 ! R14   R(6,30)                 1.4649         estimate D2E/DX2                !
 ! R15   R(7,13)                 1.395          estimate D2E/DX2                !
 ! R16   R(7,15)                 1.3949         estimate D2E/DX2                !
 ! R17   R(8,14)                 1.3948         estimate D2E/DX2                !
 ! R18   R(8,16)                 1.3948         estimate D2E/DX2                !
 ! R19   R(9,17)                 1.5165         estimate D2E/DX2                !
 ! R20   R(9,31)                 1.098          estimate D2E/DX2                !
 ! R21   R(9,32)                 1.0958         estimate D2E/DX2                !
 ! R22   R(10,18)                1.5166         estimate D2E/DX2                !
 ! R23   R(10,33)                1.0981         estimate D2E/DX2                !
 ! R24   R(10,34)                1.0957         estimate D2E/DX2                !
 ! R25   R(11,19)                1.5166         estimate D2E/DX2                !
 ! R26   R(11,35)                1.0984         estimate D2E/DX2                !
 ! R27   R(11,36)                1.0945         estimate D2E/DX2                !
 ! R28   R(12,20)                1.5166         estimate D2E/DX2                !
 ! R29   R(12,37)                1.0984         estimate D2E/DX2                !
 ! R30   R(12,38)                1.0946         estimate D2E/DX2                !
 ! R31   R(13,23)                1.3948         estimate D2E/DX2                !
 ! R32   R(13,39)                1.0844         estimate D2E/DX2                !
 ! R33   R(14,24)                1.3948         estimate D2E/DX2                !
 ! R34   R(14,40)                1.0842         estimate D2E/DX2                !
 ! R35   R(15,25)                1.3949         estimate D2E/DX2                !
 ! R36   R(15,41)                1.0842         estimate D2E/DX2                !
 ! R37   R(16,26)                1.3949         estimate D2E/DX2                !
 ! R38   R(16,42)                1.0838         estimate D2E/DX2                !
 ! R39   R(17,43)                1.0958         estimate D2E/DX2                !
 ! R40   R(17,44)                1.0934         estimate D2E/DX2                !
 ! R41   R(17,45)                1.0949         estimate D2E/DX2                !
 ! R42   R(18,46)                1.0957         estimate D2E/DX2                !
 ! R43   R(18,47)                1.0935         estimate D2E/DX2                !
 ! R44   R(18,48)                1.0949         estimate D2E/DX2                !
 ! R45   R(19,49)                1.0946         estimate D2E/DX2                !
 ! R46   R(19,50)                1.0952         estimate D2E/DX2                !
 ! R47   R(19,51)                1.0946         estimate D2E/DX2                !
 ! R48   R(20,52)                1.0945         estimate D2E/DX2                !
 ! R49   R(20,53)                1.0952         estimate D2E/DX2                !
 ! R50   R(20,54)                1.0947         estimate D2E/DX2                !
 ! R51   R(21,23)                1.3949         estimate D2E/DX2                !
 ! R52   R(21,25)                1.3948         estimate D2E/DX2                !
 ! R53   R(21,27)                1.4564         estimate D2E/DX2                !
 ! R54   R(22,24)                1.3949         estimate D2E/DX2                !
 ! R55   R(22,26)                1.3948         estimate D2E/DX2                !
 ! R56   R(22,28)                1.4727         estimate D2E/DX2                !
 ! R57   R(25,55)                1.0869         estimate D2E/DX2                !
 ! R58   R(26,56)                1.0871         estimate D2E/DX2                !
 ! R59   R(27,57)                1.1049         estimate D2E/DX2                !
 ! R60   R(28,58)                1.1058         estimate D2E/DX2                !
 ! R61   R(29,30)                1.5185         estimate D2E/DX2                !
 ! R62   R(29,59)                1.0974         estimate D2E/DX2                !
 ! R63   R(29,60)                1.0966         estimate D2E/DX2                !
 ! R64   R(30,61)                1.0976         estimate D2E/DX2                !
 ! R65   R(30,62)                1.0967         estimate D2E/DX2                !
 ! A1    A(23,1,63)            109.2863         estimate D2E/DX2                !
 ! A2    A(24,2,64)            109.3048         estimate D2E/DX2                !
 ! A3    A(7,3,9)              120.4243         estimate D2E/DX2                !
 ! A4    A(7,3,10)             120.4206         estimate D2E/DX2                !
 ! A5    A(9,3,10)             119.152          estimate D2E/DX2                !
 ! A6    A(8,4,11)             120.4248         estimate D2E/DX2                !
 ! A7    A(8,4,12)             120.4149         estimate D2E/DX2                !
 ! A8    A(11,4,12)            119.1573         estimate D2E/DX2                !
 ! A9    A(27,5,29)            113.6684         estimate D2E/DX2                !
 ! A10   A(28,6,30)            112.8665         estimate D2E/DX2                !
 ! A11   A(3,7,13)             120.0058         estimate D2E/DX2                !
 ! A12   A(3,7,15)             119.9977         estimate D2E/DX2                !
 ! A13   A(13,7,15)            119.9964         estimate D2E/DX2                !
 ! A14   A(4,8,14)             120.0037         estimate D2E/DX2                !
 ! A15   A(4,8,16)             119.9875         estimate D2E/DX2                !
 ! A16   A(14,8,16)            120.0088         estimate D2E/DX2                !
 ! A17   A(3,9,17)             110.1474         estimate D2E/DX2                !
 ! A18   A(3,9,31)             109.7048         estimate D2E/DX2                !
 ! A19   A(3,9,32)             112.7406         estimate D2E/DX2                !
 ! A20   A(17,9,31)            107.9156         estimate D2E/DX2                !
 ! A21   A(17,9,32)            111.893          estimate D2E/DX2                !
 ! A22   A(31,9,32)            104.1616         estimate D2E/DX2                !
 ! A23   A(3,10,18)            110.1407         estimate D2E/DX2                !
 ! A24   A(3,10,33)            109.6178         estimate D2E/DX2                !
 ! A25   A(3,10,34)            112.8518         estimate D2E/DX2                !
 ! A26   A(18,10,33)           107.8862         estimate D2E/DX2                !
 ! A27   A(18,10,34)           111.9892         estimate D2E/DX2                !
 ! A28   A(33,10,34)           104.0618         estimate D2E/DX2                !
 ! A29   A(4,11,19)            110.139          estimate D2E/DX2                !
 ! A30   A(4,11,35)            108.9523         estimate D2E/DX2                !
 ! A31   A(4,11,36)            114.0407         estimate D2E/DX2                !
 ! A32   A(19,11,35)           107.4062         estimate D2E/DX2                !
 ! A33   A(19,11,36)           112.2237         estimate D2E/DX2                !
 ! A34   A(35,11,36)           103.637          estimate D2E/DX2                !
 ! A35   A(4,12,20)            110.1399         estimate D2E/DX2                !
 ! A36   A(4,12,37)            108.9851         estimate D2E/DX2                !
 ! A37   A(4,12,38)            114.0392         estimate D2E/DX2                !
 ! A38   A(20,12,37)           107.3359         estimate D2E/DX2                !
 ! A39   A(20,12,38)           112.29           estimate D2E/DX2                !
 ! A40   A(37,12,38)           103.6012         estimate D2E/DX2                !
 ! A41   A(7,13,23)            119.9984         estimate D2E/DX2                !
 ! A42   A(7,13,39)            122.8193         estimate D2E/DX2                !
 ! A43   A(23,13,39)           117.1821         estimate D2E/DX2                !
 ! A44   A(8,14,24)            119.9957         estimate D2E/DX2                !
 ! A45   A(8,14,40)            122.8915         estimate D2E/DX2                !
 ! A46   A(24,14,40)           117.1031         estimate D2E/DX2                !
 ! A47   A(7,15,25)            120.0053         estimate D2E/DX2                !
 ! A48   A(7,15,41)            123.694          estimate D2E/DX2                !
 ! A49   A(25,15,41)           116.3004         estimate D2E/DX2                !
 ! A50   A(8,16,26)            119.9981         estimate D2E/DX2                !
 ! A51   A(8,16,42)            123.8034         estimate D2E/DX2                !
 ! A52   A(26,16,42)           116.1896         estimate D2E/DX2                !
 ! A53   A(9,17,43)            110.8214         estimate D2E/DX2                !
 ! A54   A(9,17,44)            113.0316         estimate D2E/DX2                !
 ! A55   A(9,17,45)            110.02           estimate D2E/DX2                !
 ! A56   A(43,17,44)           107.3612         estimate D2E/DX2                !
 ! A57   A(43,17,45)           107.7306         estimate D2E/DX2                !
 ! A58   A(44,17,45)           107.6725         estimate D2E/DX2                !
 ! A59   A(10,18,46)           110.8634         estimate D2E/DX2                !
 ! A60   A(10,18,47)           112.9538         estimate D2E/DX2                !
 ! A61   A(10,18,48)           110.0247         estimate D2E/DX2                !
 ! A62   A(46,18,47)           107.3787         estimate D2E/DX2                !
 ! A63   A(46,18,48)           107.741          estimate D2E/DX2                !
 ! A64   A(47,18,48)           107.6786         estimate D2E/DX2                !
 ! A65   A(11,19,49)           111.7458         estimate D2E/DX2                !
 ! A66   A(11,19,50)           111.3574         estimate D2E/DX2                !
 ! A67   A(11,19,51)           110.1744         estimate D2E/DX2                !
 ! A68   A(49,19,50)           107.641          estimate D2E/DX2                !
 ! A69   A(49,19,51)           107.8912         estimate D2E/DX2                !
 ! A70   A(50,19,51)           107.8729         estimate D2E/DX2                !
 ! A71   A(12,20,52)           111.8011         estimate D2E/DX2                !
 ! A72   A(12,20,53)           111.3125         estimate D2E/DX2                !
 ! A73   A(12,20,54)           110.1821         estimate D2E/DX2                !
 ! A74   A(52,20,53)           107.6195         estimate D2E/DX2                !
 ! A75   A(52,20,54)           107.8895         estimate D2E/DX2                !
 ! A76   A(53,20,54)           107.877          estimate D2E/DX2                !
 ! A77   A(23,21,25)           120.0057         estimate D2E/DX2                !
 ! A78   A(23,21,27)           120.8694         estimate D2E/DX2                !
 ! A79   A(25,21,27)           119.1248         estimate D2E/DX2                !
 ! A80   A(24,22,26)           120.0062         estimate D2E/DX2                !
 ! A81   A(24,22,28)           120.8693         estimate D2E/DX2                !
 ! A82   A(26,22,28)           119.1245         estimate D2E/DX2                !
 ! A83   A(1,23,13)            119.1532         estimate D2E/DX2                !
 ! A84   A(1,23,21)            120.8471         estimate D2E/DX2                !
 ! A85   A(13,23,21)           119.9997         estimate D2E/DX2                !
 ! A86   A(2,24,14)            119.1559         estimate D2E/DX2                !
 ! A87   A(2,24,22)            120.8471         estimate D2E/DX2                !
 ! A88   A(14,24,22)           119.9971         estimate D2E/DX2                !
 ! A89   A(15,25,21)           119.9944         estimate D2E/DX2                !
 ! A90   A(15,25,55)           118.2948         estimate D2E/DX2                !
 ! A91   A(21,25,55)           121.7108         estimate D2E/DX2                !
 ! A92   A(16,26,22)           119.9942         estimate D2E/DX2                !
 ! A93   A(16,26,56)           119.2685         estimate D2E/DX2                !
 ! A94   A(22,26,56)           120.7371         estimate D2E/DX2                !
 ! A95   A(5,27,21)            122.8003         estimate D2E/DX2                !
 ! A96   A(5,27,57)            119.8171         estimate D2E/DX2                !
 ! A97   A(21,27,57)           117.3825         estimate D2E/DX2                !
 ! A98   A(6,28,22)            122.0002         estimate D2E/DX2                !
 ! A99   A(6,28,58)            121.6442         estimate D2E/DX2                !
 ! A100  A(22,28,58)           116.2727         estimate D2E/DX2                !
 ! A101  A(5,29,30)            109.5191         estimate D2E/DX2                !
 ! A102  A(5,29,59)            110.1355         estimate D2E/DX2                !
 ! A103  A(5,29,60)            110.389          estimate D2E/DX2                !
 ! A104  A(30,29,59)           109.3163         estimate D2E/DX2                !
 ! A105  A(30,29,60)           109.1003         estimate D2E/DX2                !
 ! A106  A(59,29,60)           108.3536         estimate D2E/DX2                !
 ! A107  A(6,30,29)            109.5223         estimate D2E/DX2                !
 ! A108  A(6,30,61)            110.0936         estimate D2E/DX2                !
 ! A109  A(6,30,62)            110.3543         estimate D2E/DX2                !
 ! A110  A(29,30,61)           109.3518         estimate D2E/DX2                !
 ! A111  A(29,30,62)           109.0747         estimate D2E/DX2                !
 ! A112  A(61,30,62)           108.4183         estimate D2E/DX2                !
 ! D1    D(63,1,23,13)           0.0408         estimate D2E/DX2                !
 ! D2    D(63,1,23,21)        -179.9524         estimate D2E/DX2                !
 ! D3    D(64,2,24,14)           0.0775         estimate D2E/DX2                !
 ! D4    D(64,2,24,22)        -179.9149         estimate D2E/DX2                !
 ! D5    D(9,3,7,13)           179.9467         estimate D2E/DX2                !
 ! D6    D(9,3,7,15)             0.0035         estimate D2E/DX2                !
 ! D7    D(10,3,7,13)           -0.702          estimate D2E/DX2                !
 ! D8    D(10,3,7,15)          179.3548         estimate D2E/DX2                !
 ! D9    D(7,3,9,17)           -80.8967         estimate D2E/DX2                !
 ! D10   D(7,3,9,31)           160.454          estimate D2E/DX2                !
 ! D11   D(7,3,9,32)            44.8662         estimate D2E/DX2                !
 ! D12   D(10,3,9,17)           99.7438         estimate D2E/DX2                !
 ! D13   D(10,3,9,31)          -18.9054         estimate D2E/DX2                !
 ! D14   D(10,3,9,32)         -134.4932         estimate D2E/DX2                !
 ! D15   D(7,3,10,18)          -80.8986         estimate D2E/DX2                !
 ! D16   D(7,3,10,33)          160.5456         estimate D2E/DX2                !
 ! D17   D(7,3,10,34)           45.0703         estimate D2E/DX2                !
 ! D18   D(9,3,10,18)           98.4608         estimate D2E/DX2                !
 ! D19   D(9,3,10,33)          -20.095          estimate D2E/DX2                !
 ! D20   D(9,3,10,34)         -135.5702         estimate D2E/DX2                !
 ! D21   D(11,4,8,14)          179.9514         estimate D2E/DX2                !
 ! D22   D(11,4,8,16)            0.0041         estimate D2E/DX2                !
 ! D23   D(12,4,8,14)           -0.6942         estimate D2E/DX2                !
 ! D24   D(12,4,8,16)          179.3585         estimate D2E/DX2                !
 ! D25   D(8,4,11,19)           89.099          estimate D2E/DX2                !
 ! D26   D(8,4,11,35)         -153.3318         estimate D2E/DX2                !
 ! D27   D(8,4,11,36)          -38.1087         estimate D2E/DX2                !
 ! D28   D(12,4,11,19)         -90.2635         estimate D2E/DX2                !
 ! D29   D(12,4,11,35)          27.3057         estimate D2E/DX2                !
 ! D30   D(12,4,11,36)         142.5289         estimate D2E/DX2                !
 ! D31   D(8,4,12,20)           89.1003         estimate D2E/DX2                !
 ! D32   D(8,4,12,37)         -153.3959         estimate D2E/DX2                !
 ! D33   D(8,4,12,38)          -38.1968         estimate D2E/DX2                !
 ! D34   D(11,4,12,20)         -91.5372         estimate D2E/DX2                !
 ! D35   D(11,4,12,37)          25.9666         estimate D2E/DX2                !
 ! D36   D(11,4,12,38)         141.1658         estimate D2E/DX2                !
 ! D37   D(29,5,27,21)        -179.959          estimate D2E/DX2                !
 ! D38   D(29,5,27,57)          -0.0501         estimate D2E/DX2                !
 ! D39   D(27,5,29,30)        -178.1656         estimate D2E/DX2                !
 ! D40   D(27,5,29,59)         -57.9156         estimate D2E/DX2                !
 ! D41   D(27,5,29,60)          61.693          estimate D2E/DX2                !
 ! D42   D(30,6,28,22)        -179.9595         estimate D2E/DX2                !
 ! D43   D(30,6,28,58)          -3.3963         estimate D2E/DX2                !
 ! D44   D(28,6,30,29)        -178.1631         estimate D2E/DX2                !
 ! D45   D(28,6,30,61)         -57.8935         estimate D2E/DX2                !
 ! D46   D(28,6,30,62)          61.7467         estimate D2E/DX2                !
 ! D47   D(3,7,13,23)         -179.954          estimate D2E/DX2                !
 ! D48   D(3,7,13,39)           -0.0999         estimate D2E/DX2                !
 ! D49   D(15,7,13,23)          -0.0108         estimate D2E/DX2                !
 ! D50   D(15,7,13,39)         179.8433         estimate D2E/DX2                !
 ! D51   D(3,7,15,25)          179.9483         estimate D2E/DX2                !
 ! D52   D(3,7,15,41)           -0.2689         estimate D2E/DX2                !
 ! D53   D(13,7,15,25)           0.005          estimate D2E/DX2                !
 ! D54   D(13,7,15,41)         179.7879         estimate D2E/DX2                !
 ! D55   D(4,8,14,24)         -179.9553         estimate D2E/DX2                !
 ! D56   D(4,8,14,40)           -1.1264         estimate D2E/DX2                !
 ! D57   D(16,8,14,24)          -0.008          estimate D2E/DX2                !
 ! D58   D(16,8,14,40)         178.8209         estimate D2E/DX2                !
 ! D59   D(4,8,16,26)          179.9541         estimate D2E/DX2                !
 ! D60   D(4,8,16,42)           -1.177          estimate D2E/DX2                !
 ! D61   D(14,8,16,26)           0.0067         estimate D2E/DX2                !
 ! D62   D(14,8,16,42)         178.8756         estimate D2E/DX2                !
 ! D63   D(3,9,17,43)          -58.763          estimate D2E/DX2                !
 ! D64   D(3,9,17,44)           61.8054         estimate D2E/DX2                !
 ! D65   D(3,9,17,45)         -177.7977         estimate D2E/DX2                !
 ! D66   D(31,9,17,43)          60.977          estimate D2E/DX2                !
 ! D67   D(31,9,17,44)        -178.4546         estimate D2E/DX2                !
 ! D68   D(31,9,17,45)         -58.0577         estimate D2E/DX2                !
 ! D69   D(32,9,17,43)         174.9952         estimate D2E/DX2                !
 ! D70   D(32,9,17,44)         -64.4364         estimate D2E/DX2                !
 ! D71   D(32,9,17,45)          55.9606         estimate D2E/DX2                !
 ! D72   D(3,10,18,46)         -58.5983         estimate D2E/DX2                !
 ! D73   D(3,10,18,47)          61.9689         estimate D2E/DX2                !
 ! D74   D(3,10,18,48)        -177.6753         estimate D2E/DX2                !
 ! D75   D(33,10,18,46)         61.0144         estimate D2E/DX2                !
 ! D76   D(33,10,18,47)       -178.4184         estimate D2E/DX2                !
 ! D77   D(33,10,18,48)        -58.0627         estimate D2E/DX2                !
 ! D78   D(34,10,18,46)        174.9467         estimate D2E/DX2                !
 ! D79   D(34,10,18,47)        -64.4861         estimate D2E/DX2                !
 ! D80   D(34,10,18,48)         55.8696         estimate D2E/DX2                !
 ! D81   D(4,11,19,49)         -62.9008         estimate D2E/DX2                !
 ! D82   D(4,11,19,50)          57.5171         estimate D2E/DX2                !
 ! D83   D(4,11,19,51)         177.1705         estimate D2E/DX2                !
 ! D84   D(35,11,19,49)        178.577          estimate D2E/DX2                !
 ! D85   D(35,11,19,50)        -61.0051         estimate D2E/DX2                !
 ! D86   D(35,11,19,51)         58.6483         estimate D2E/DX2                !
 ! D87   D(36,11,19,49)         65.3109         estimate D2E/DX2                !
 ! D88   D(36,11,19,50)       -174.2712         estimate D2E/DX2                !
 ! D89   D(36,11,19,51)        -54.6178         estimate D2E/DX2                !
 ! D90   D(4,12,20,52)         -62.8734         estimate D2E/DX2                !
 ! D91   D(4,12,20,53)          57.524          estimate D2E/DX2                !
 ! D92   D(4,12,20,54)         177.1587         estimate D2E/DX2                !
 ! D93   D(37,12,20,52)        178.6059         estimate D2E/DX2                !
 ! D94   D(37,12,20,53)        -60.9968         estimate D2E/DX2                !
 ! D95   D(37,12,20,54)         58.6379         estimate D2E/DX2                !
 ! D96   D(38,12,20,52)         65.3893         estimate D2E/DX2                !
 ! D97   D(38,12,20,53)       -174.2133         estimate D2E/DX2                !
 ! D98   D(38,12,20,54)        -54.5786         estimate D2E/DX2                !
 ! D99   D(7,13,23,1)         -179.9838         estimate D2E/DX2                !
 ! D100  D(7,13,23,21)           0.0094         estimate D2E/DX2                !
 ! D101  D(39,13,23,1)           0.154          estimate D2E/DX2                !
 ! D102  D(39,13,23,21)       -179.8528         estimate D2E/DX2                !
 ! D103  D(8,14,24,2)         -179.9877         estimate D2E/DX2                !
 ! D104  D(8,14,24,22)           0.0048         estimate D2E/DX2                !
 ! D105  D(40,14,24,2)           1.1169         estimate D2E/DX2                !
 ! D106  D(40,14,24,22)       -178.8906         estimate D2E/DX2                !
 ! D107  D(7,15,25,21)           0.0021         estimate D2E/DX2                !
 ! D108  D(7,15,25,55)         179.9881         estimate D2E/DX2                !
 ! D109  D(41,15,25,21)       -179.7964         estimate D2E/DX2                !
 ! D110  D(41,15,25,55)          0.1896         estimate D2E/DX2                !
 ! D111  D(8,16,26,22)          -0.0022         estimate D2E/DX2                !
 ! D112  D(8,16,26,56)         179.8442         estimate D2E/DX2                !
 ! D113  D(42,16,26,22)       -178.9548         estimate D2E/DX2                !
 ! D114  D(42,16,26,56)          0.8916         estimate D2E/DX2                !
 ! D115  D(25,21,23,1)         179.9909         estimate D2E/DX2                !
 ! D116  D(25,21,23,13)         -0.0022         estimate D2E/DX2                !
 ! D117  D(27,21,23,1)          -0.0164         estimate D2E/DX2                !
 ! D118  D(27,21,23,13)        179.9905         estimate D2E/DX2                !
 ! D119  D(23,21,25,15)         -0.0035         estimate D2E/DX2                !
 ! D120  D(23,21,25,55)       -179.989          estimate D2E/DX2                !
 ! D121  D(27,21,25,15)       -179.9964         estimate D2E/DX2                !
 ! D122  D(27,21,25,55)          0.0181         estimate D2E/DX2                !
 ! D123  D(23,21,27,5)        -179.9055         estimate D2E/DX2                !
 ! D124  D(23,21,27,57)          0.1835         estimate D2E/DX2                !
 ! D125  D(25,21,27,5)           0.0873         estimate D2E/DX2                !
 ! D126  D(25,21,27,57)       -179.8236         estimate D2E/DX2                !
 ! D127  D(26,22,24,2)         179.9921         estimate D2E/DX2                !
 ! D128  D(26,22,24,14)         -0.0002         estimate D2E/DX2                !
 ! D129  D(28,22,24,2)          -0.0184         estimate D2E/DX2                !
 ! D130  D(28,22,24,14)        179.9892         estimate D2E/DX2                !
 ! D131  D(24,22,26,16)         -0.0011         estimate D2E/DX2                !
 ! D132  D(24,22,26,56)       -179.8452         estimate D2E/DX2                !
 ! D133  D(28,22,26,16)       -179.9907         estimate D2E/DX2                !
 ! D134  D(28,22,26,56)          0.1652         estimate D2E/DX2                !
 ! D135  D(24,22,28,6)         -29.9041         estimate D2E/DX2                !
 ! D136  D(24,22,28,58)        153.3587         estimate D2E/DX2                !
 ! D137  D(26,22,28,6)         150.0855         estimate D2E/DX2                !
 ! D138  D(26,22,28,58)        -26.6518         estimate D2E/DX2                !
 ! D139  D(5,29,30,6)           59.2439         estimate D2E/DX2                !
 ! D140  D(5,29,30,61)         -61.4773         estimate D2E/DX2                !
 ! D141  D(5,29,30,62)        -179.8868         estimate D2E/DX2                !
 ! D142  D(59,29,30,6)         -61.5048         estimate D2E/DX2                !
 ! D143  D(59,29,30,61)        177.7741         estimate D2E/DX2                !
 ! D144  D(59,29,30,62)         59.3645         estimate D2E/DX2                !
 ! D145  D(60,29,30,6)        -179.8303         estimate D2E/DX2                !
 ! D146  D(60,29,30,61)         59.4485         estimate D2E/DX2                !
 ! D147  D(60,29,30,62)        -58.9611         estimate D2E/DX2                !
 --------------------------------------------------------------------------------
 Trust Radius=3.00D-01 FncErr=1.00D-07 GrdErr=1.00D-06 EigMax=2.50D+02 EigMin=1.00D-04
 Number of steps in this run=    334 maximum allowed number of steps=    384.
 GradGradGradGradGradGradGradGradGradGradGradGradGradGradGradGradGradGrad

 Leave Link  103 at Tue Dec  5 08:30:20 2023, MaxMem=  2147483648 cpu:               3.7 elap:               0.2
 (Enter /opt/gaussian/g16-c01/g16/l202.exe)
 Stoichiometry    C24H34N4O2
 Framework group  C1[X(C24H34N4O2)]
 Deg. of freedom   186
 Full point group                 C1      NOp   1
 Largest Abelian subgroup         C1      NOp   1
 Largest concise Abelian subgroup C1      NOp   1
                         Standard orientation:                         
 ---------------------------------------------------------------------
 Center     Atomic      Atomic             Coordinates (Angstroms)
 Number     Number       Type             X           Y           Z
 ---------------------------------------------------------------------
      1          8           0        5.049625    2.294120    1.743424
      2          8           0       -1.752668    0.017592    0.043479
      3          7           0        5.916756   -1.953575   -0.334479
      4          7           0       -6.294759   -1.538824    0.287843
      5          7           0        1.395567    2.632009   -0.173922
      6          7           0       -1.447030    2.705561   -0.140131
      7          6           0        5.079595   -0.834972   -0.142402
      8          6           0       -5.368300   -0.505957    0.033836
      9          6           0        5.514610   -3.027755   -1.220499
     10          6           0        7.196548   -2.037045    0.340820
     11          6           0       -7.717788   -1.296757    0.157626
     12          6           0       -5.835038   -2.859642    0.668879
     13          6           0        5.474811    0.193407    0.713249
     14          6           0       -4.000771   -0.748343    0.162816
     15          6           0        3.855777   -0.757477   -0.807160
     16          6           0       -5.820008    0.758036   -0.345251
     17          6           0        4.551985   -3.958946   -0.509095
     18          6           0        8.234619   -1.220630   -0.404745
     19          6           0       -8.167382   -1.577695   -1.263347
     20          6           0       -5.695116   -2.949122    2.176341
     21          6           0        3.422490    1.376576    0.238984
     22          6           0       -3.536560    1.537454   -0.466675
     23          6           0        4.646309    1.299181    0.903842
     24          6           0       -3.084851    0.273362   -0.087489
     25          6           0        3.027175    0.348297   -0.616467
     26          6           0       -4.904088    1.779841   -0.595556
     27          6           0        2.542622    2.522214    0.424212
     28          6           0       -2.586494    2.630133   -0.735414
     29          6           0        0.678279    3.860826    0.154747
     30          6           0       -0.663230    3.870971   -0.556635
     31          1           0        6.395186   -3.613478   -1.515666
     32          1           0        5.104723   -2.663351   -2.169152
     33          1           0        7.537015   -3.080855    0.357861
     34          1           0        7.138269   -1.758725    1.398964
     35          1           0       -8.259192   -1.989069    0.816517
     36          1           0       -8.035575   -0.308537    0.504644
     37          1           0       -6.586575   -3.600918    0.365371
     38          1           0       -4.928655   -3.183825    0.147823
     39          1           0        6.414416    0.179248    1.254472
     40          1           0       -3.599315   -1.706724    0.472330
     41          1           0        3.491321   -1.519317   -1.487100
     42          1           0       -6.865602    1.009061   -0.480929
     43          1           0        5.012512   -4.381855    0.390838
     44          1           0        3.627202   -3.463867   -0.200485
     45          1           0        4.280085   -4.790873   -1.166919
     46          1           0        8.341037   -1.573388   -1.436599
     47          1           0        7.989638   -0.155753   -0.447240
     48          1           0        9.209785   -1.318247    0.083467
     49          1           0       -7.686706   -0.905530   -1.981162
     50          1           0       -7.930956   -2.604909   -1.560787
     51          1           0       -9.250292   -1.443610   -1.350158
     52          1           0       -4.940877   -2.253095    2.556586
     53          1           0       -6.641096   -2.719524    2.678245
     54          1           0       -5.396624   -3.960978    2.468529
     55          1           0        2.079921    0.380089   -1.148410
     56          1           0       -5.269081    2.759711   -0.892763
     57          1           0        2.885500    3.321327    1.105808
     58          1           0       -2.928065    3.414510   -1.436052
     59          1           0        0.515179    3.924810    1.238091
     60          1           0        1.257762    4.737184   -0.159563
     61          1           0       -0.499698    3.847185   -1.641710
     62          1           0       -1.194559    4.797215   -0.306508
     63          1           0        5.920752    2.069450    2.112568
     64          1           0       -1.627982   -0.909013    0.310988
 ---------------------------------------------------------------------
 Rotational constants (GHZ):           0.2302599           0.0486823           0.0419863
 Leave Link  202 at Tue Dec  5 08:30:20 2023, MaxMem=  2147483648 cpu:               5.6 elap:               0.4
 (Enter /opt/gaussian/g16-c01/g16/l301.exe)
 Standard basis: 6-311++G(d,p) (5D, 7F)
 Ernie: Thresh=  0.10000D-02 Tol=  0.10000D-05 Strict=F.
 There are   928 symmetry adapted cartesian basis functions of A   symmetry.
 There are   898 symmetry adapted basis functions of A   symmetry.
   898 basis functions,  1386 primitive gaussians,   928 cartesian basis functions
   111 alpha electrons      111 beta electrons
       nuclear repulsion energy      2706.2936245973 Hartrees.
 IExCor= 7252 DFT=T Ex+Corr=MN15 ExCW=0 ScaHFX=  0.440000
 ScaDFX=  1.000000  1.000000  1.000000  1.000000 ScalE2=  1.000000  1.000000
 IRadAn=      5 IRanWt=     -1 IRanGd=            0 ICorTp=0 IEmpDi=  4
 NAtoms=   64 NActive=   64 NUniq=   64 SFac= 1.00D+00 NAtFMM=   60 NAOKFM=T Big=T
 Integral buffers will be    131072 words long.
 Raffenetti 2 integral format.
 Two-electron integral symmetry is turned on.
 Leave Link  301 at Tue Dec  5 08:30:20 2023, MaxMem=  2147483648 cpu:               3.2 elap:               0.2
 (Enter /opt/gaussian/g16-c01/g16/l302.exe)
 NPDir=0 NMtPBC=     1 NCelOv=     1 NCel=       1 NClECP=     1 NCelD=      1
         NCelK=      1 NCelE2=     1 NClLst=     1 CellRange=     0.0.
 One-electron integrals computed using PRISM.
 One-electron integral symmetry used in STVInt
 NBasis=   898 RedAO= T EigKep=  1.18D-06  NBF=   898
 NBsUse=   890 1.00D-06 EigRej=  8.64D-07 NBFU=   890
 Precomputing XC quadrature grid using
 IXCGrd= 4 IRadAn=           5 IRanWt=          -1 IRanGd=           0 AccXCQ= 0.00D+00.
 Generated NRdTot=       0 NPtTot=           0 NUsed=           0 NTot=          32
 NSgBfM=   875   875   875   875   875 MxSgAt=    64 MxSgA2=    64.
 Leave Link  302 at Tue Dec  5 08:30:22 2023, MaxMem=  2147483648 cpu:              47.9 elap:               2.0
 (Enter /opt/gaussian/g16-c01/g16/l303.exe)
 DipDrv:  MaxL=1.
 Leave Link  303 at Tue Dec  5 08:30:23 2023, MaxMem=  2147483648 cpu:               7.0 elap:               0.4
 (Enter /opt/gaussian/g16-c01/g16/l401.exe)
 ExpMin= 3.60D-02 ExpMax= 8.59D+03 ExpMxC= 1.30D+03 IAcc=3 IRadAn=         5 AccDes= 0.00D+00
 Harris functional with IExCor= 1009 and IRadAn=       5 diagonalized for initial guess.
 HarFok:  IExCor= 1009 AccDes= 0.00D+00 IRadAn=         5 IDoV= 1 UseB2=F ITyADJ=14
 ICtDFT=  3500011 ScaDFX=  1.000000  1.000000  1.000000  1.000000
 FoFCou: FMM=F IPFlag=           0 FMFlag=      100000 FMFlg1=        2001
         NFxFlg=           0 DoJE=T BraDBF=F KetDBF=T FulRan=T
         wScrn=  0.000000 ICntrl=       500 IOpCl=  0 I1Cent=   200000004 NGrid=           0
         NMat0=    1 NMatS0=      1 NMatT0=    0 NMatD0=    1 NMtDS0=    0 NMtDT0=    0
 Petite list used in FoFCou.
 Harris En= -1303.66115873821    
 JPrj=0 DoOrth=F DoCkMO=F.
 Leave Link  401 at Tue Dec  5 08:30:27 2023, MaxMem=  2147483648 cpu:             119.3 elap:               4.7
 (Enter /opt/gaussian/g16-c01/g16/l502.exe)
 Integral symmetry usage will be decided dynamically.
 Closed shell SCF:
 Using DIIS extrapolation, IDIIS=  1040.
 NGot=  2147483648 LenX=  2145726714 LenY=  2144864602
 Requested convergence on RMS density matrix=1.00D-08 within 128 cycles.
 Requested convergence on MAX density matrix=1.00D-06.
 Requested convergence on             energy=1.00D-06.
 No special actions if energy rises.
 Fock matrices will be formed incrementally for  20 cycles.

 Cycle   1  Pass 1  IDiag  1:
 FoFJK:  IHMeth= 1 ICntrl=       0 DoSepK=F KAlg= 0 I1Cent=           0 FoldK=F
 IRaf= 770000000 NMat=       1 IRICut=       1 DoRegI=T DoRafI=F ISym2E= 0 IDoP0=0 IntGTp=1.
 FoFCou: FMM=T IPFlag=           0 FMFlag=      100000 FMFlg1=        2001
         NFxFlg=           0 DoJE=F BraDBF=F KetDBF=F FulRan=T
         wScrn=  0.000000 ICntrl=         0 IOpCl=  0 I1Cent=           0 NGrid=           0
         NMat0=    1 NMatS0=      1 NMatT0=    0 NMatD0=    1 NMtDS0=    0 NMtDT0=    0
 Symmetry not used in FoFCou.
 FMM levels:  10  Number of levels for PrismC:   9
 E= -1302.39560277149    
 DIIS: error= 1.66D-02 at cycle   1 NSaved=   1.
 NSaved= 1 IEnMin= 1 EnMin= -1302.39560277149     IErMin= 1 ErrMin= 1.66D-02
 ErrMax= 1.66D-02  0.00D+00 EMaxC= 1.00D-01 BMatC= 8.73D-01 BMatP= 8.73D-01
 IDIUse=3 WtCom= 8.34D-01 WtEn= 1.66D-01
 Coeff-Com:  0.100D+01
 Coeff-En:   0.100D+01
 Coeff:      0.100D+01
 Gap=     0.240 Goal=   None    Shift=    0.000
 GapD=    0.240 DampG=1.000 DampE=0.500 DampFc=0.5000 IDamp=-1.
 Damping current iteration by 5.00D-01
 RMSDP=1.49D-02 MaxDP=2.79D+00              OVMax= 2.02D-01

 Cycle   2  Pass 1  IDiag  1:
 RMSU=  6.45D-03    CP:  9.24D-01
 E= -1302.77703007495     Delta-E=       -0.381427303456 Rises=F Damp=T
 DIIS: error= 8.76D-03 at cycle   2 NSaved=   2.
 NSaved= 2 IEnMin= 2 EnMin= -1302.77703007495     IErMin= 2 ErrMin= 8.76D-03
 ErrMax= 8.76D-03  0.00D+00 EMaxC= 1.00D-01 BMatC= 7.34D-02 BMatP= 8.73D-01
 IDIUse=3 WtCom= 9.12D-01 WtEn= 8.76D-02
 Coeff-Com: -0.722D-01 0.107D+01
 Coeff-En:   0.000D+00 0.100D+01
 Coeff:     -0.659D-01 0.107D+01
 Gap=     0.253 Goal=   None    Shift=    0.000
 RMSDP=1.24D-02 MaxDP=1.98D+00 DE=-3.81D-01 OVMax= 1.19D-01

 Cycle   3  Pass 1  IDiag  1:
 RMSU=  3.96D-03    CP:  6.86D-01  9.19D-01
 E= -1303.13252737678     Delta-E=       -0.355497301834 Rises=F Damp=F
 DIIS: error= 4.08D-03 at cycle   3 NSaved=   3.
 NSaved= 3 IEnMin= 3 EnMin= -1303.13252737678     IErMin= 3 ErrMin= 4.08D-03
 ErrMax= 4.08D-03  0.00D+00 EMaxC= 1.00D-01 BMatC= 3.48D-02 BMatP= 7.34D-02
 IDIUse=3 WtCom= 9.59D-01 WtEn= 4.08D-02
 Coeff-Com: -0.831D-01 0.446D+00 0.637D+00
 Coeff-En:   0.000D+00 0.000D+00 0.100D+01
 Coeff:     -0.797D-01 0.428D+00 0.652D+00
 Gap=     0.219 Goal=   None    Shift=    0.000
 RMSDP=1.85D-03 MaxDP=2.22D-01 DE=-3.55D-01 OVMax= 7.81D-02

 Cycle   4  Pass 1  IDiag  1:
 RMSU=  1.14D-03    CP:  7.02D-01  1.07D+00  8.13D-01
 E= -1303.14591630588     Delta-E=       -0.013388929101 Rises=F Damp=F
 DIIS: error= 3.22D-03 at cycle   4 NSaved=   4.
 NSaved= 4 IEnMin= 4 EnMin= -1303.14591630588     IErMin= 4 ErrMin= 3.22D-03
 ErrMax= 3.22D-03  0.00D+00 EMaxC= 1.00D-01 BMatC= 1.85D-02 BMatP= 3.48D-02
 IDIUse=3 WtCom= 9.68D-01 WtEn= 3.22D-02
 Coeff-Com: -0.387D-01 0.124D+00 0.437D+00 0.478D+00
 Coeff-En:   0.000D+00 0.000D+00 0.378D+00 0.622D+00
 Coeff:     -0.374D-01 0.120D+00 0.435D+00 0.483D+00
 Gap=     0.212 Goal=   None    Shift=    0.000
 RMSDP=1.22D-03 MaxDP=1.76D-01 DE=-1.34D-02 OVMax= 2.83D-02

 Cycle   5  Pass 1  IDiag  1:
 RMSU=  3.69D-04    CP:  6.82D-01  1.02D+00  8.82D-01  6.06D-01
 E= -1303.16208025754     Delta-E=       -0.016163951660 Rises=F Damp=F
 DIIS: error= 3.58D-04 at cycle   5 NSaved=   5.
 NSaved= 5 IEnMin= 5 EnMin= -1303.16208025754     IErMin= 5 ErrMin= 3.58D-04
 ErrMax= 3.58D-04  0.00D+00 EMaxC= 1.00D-01 BMatC= 3.28D-04 BMatP= 1.85D-02
 IDIUse=3 WtCom= 9.96D-01 WtEn= 3.58D-03
 Coeff-Com: -0.121D-01 0.329D-01 0.162D+00 0.214D+00 0.603D+00
 Coeff-En:   0.000D+00 0.000D+00 0.000D+00 0.000D+00 0.100D+01
 Coeff:     -0.121D-01 0.328D-01 0.161D+00 0.214D+00 0.605D+00
 Gap=     0.210 Goal=   None    Shift=    0.000
 RMSDP=1.08D-04 MaxDP=1.61D-02 DE=-1.62D-02 OVMax= 4.72D-03

 Cycle   6  Pass 1  IDiag  1:
 RMSU=  1.01D-04    CP:  6.81D-01  1.02D+00  8.83D-01  6.30D-01  9.68D-01
 E= -1303.16232163572     Delta-E=       -0.000241378175 Rises=F Damp=F
 DIIS: error= 2.15D-04 at cycle   6 NSaved=   6.
 NSaved= 6 IEnMin= 6 EnMin= -1303.16232163572     IErMin= 6 ErrMin= 2.15D-04
 ErrMax= 2.15D-04  0.00D+00 EMaxC= 1.00D-01 BMatC= 5.83D-05 BMatP= 3.28D-04
 IDIUse=3 WtCom= 9.98D-01 WtEn= 2.15D-03
 Coeff-Com: -0.112D-02 0.877D-03 0.262D-01 0.463D-01 0.324D+00 0.603D+00
 Coeff-En:   0.000D+00 0.000D+00 0.000D+00 0.000D+00 0.115D+00 0.885D+00
 Coeff:     -0.111D-02 0.875D-03 0.262D-01 0.462D-01 0.324D+00 0.604D+00
 Gap=     0.211 Goal=   None    Shift=    0.000
 RMSDP=6.31D-05 MaxDP=6.13D-03 DE=-2.41D-04 OVMax= 2.31D-03

 Cycle   7  Pass 1  IDiag  1:
 RMSU=  4.89D-05    CP:  6.81D-01  1.02D+00  8.86D-01  6.32D-01  9.45D-01
                    CP:  7.67D-01
 E= -1303.16237445945     Delta-E=       -0.000052823731 Rises=F Damp=F
 DIIS: error= 6.71D-05 at cycle   7 NSaved=   7.
 NSaved= 7 IEnMin= 7 EnMin= -1303.16237445945     IErMin= 7 ErrMin= 6.71D-05
 ErrMax= 6.71D-05  0.00D+00 EMaxC= 1.00D-01 BMatC= 4.57D-06 BMatP= 5.83D-05
 IDIUse=1 WtCom= 1.00D+00 WtEn= 0.00D+00
 Coeff-Com:  0.768D-03-0.318D-02-0.403D-02-0.199D-02 0.840D-01 0.279D+00
 Coeff-Com:  0.645D+00
 Coeff:      0.768D-03-0.318D-02-0.403D-02-0.199D-02 0.840D-01 0.279D+00
 Coeff:      0.645D+00
 Gap=     0.211 Goal=   None    Shift=    0.000
 RMSDP=2.16D-05 MaxDP=2.59D-03 DE=-5.28D-05 OVMax= 7.04D-04

 Cycle   8  Pass 1  IDiag  1:
 RMSU=  1.34D-05    CP:  6.81D-01  1.02D+00  8.86D-01  6.36D-01  9.75D-01
                    CP:  8.42D-01  8.56D-01
 E= -1303.16237908783     Delta-E=       -0.000004628382 Rises=F Damp=F
 DIIS: error= 2.80D-05 at cycle   8 NSaved=   8.
 NSaved= 8 IEnMin= 8 EnMin= -1303.16237908783     IErMin= 8 ErrMin= 2.80D-05
 ErrMax= 2.80D-05  0.00D+00 EMaxC= 1.00D-01 BMatC= 6.74D-07 BMatP= 4.57D-06
 IDIUse=1 WtCom= 1.00D+00 WtEn= 0.00D+00
 Coeff-Com:  0.651D-03-0.200D-02-0.632D-02-0.917D-02-0.443D-02 0.581D-01
 Coeff-Com:  0.316D+00 0.647D+00
 Coeff:      0.651D-03-0.200D-02-0.632D-02-0.917D-02-0.443D-02 0.581D-01
 Coeff:      0.316D+00 0.647D+00
 Gap=     0.211 Goal=   None    Shift=    0.000
 RMSDP=9.29D-06 MaxDP=1.41D-03 DE=-4.63D-06 OVMax= 4.52D-04

 Cycle   9  Pass 1  IDiag  1:
 RMSU=  5.78D-06    CP:  6.81D-01  1.02D+00  8.86D-01  6.37D-01  9.80D-01
                    CP:  8.60D-01  9.25D-01  8.97D-01
 E= -1303.16237982793     Delta-E=       -0.000000740095 Rises=F Damp=F
 DIIS: error= 1.07D-05 at cycle   9 NSaved=   9.
 NSaved= 9 IEnMin= 9 EnMin= -1303.16237982793     IErMin= 9 ErrMin= 1.07D-05
 ErrMax= 1.07D-05  0.00D+00 EMaxC= 1.00D-01 BMatC= 1.13D-07 BMatP= 6.74D-07
 IDIUse=1 WtCom= 1.00D+00 WtEn= 0.00D+00
 Coeff-Com:  0.254D-03-0.658D-03-0.262D-02-0.477D-02-0.122D-01-0.343D-02
 Coeff-Com:  0.774D-01 0.330D+00 0.616D+00
 Coeff:      0.254D-03-0.658D-03-0.262D-02-0.477D-02-0.122D-01-0.343D-02
 Coeff:      0.774D-01 0.330D+00 0.616D+00
 Gap=     0.211 Goal=   None    Shift=    0.000
 RMSDP=3.04D-06 MaxDP=5.68D-04 DE=-7.40D-07 OVMax= 1.08D-04

 Cycle  10  Pass 1  IDiag  1:
 RMSU=  1.78D-06    CP:  6.81D-01  1.02D+00  8.86D-01  6.37D-01  9.83D-01
                    CP:  8.63D-01  9.29D-01  9.96D-01  8.39D-01
 E= -1303.16237995482     Delta-E=       -0.000000126889 Rises=F Damp=F
 DIIS: error= 3.70D-06 at cycle  10 NSaved=  10.
 NSaved=10 IEnMin=10 EnMin= -1303.16237995482     IErMin=10 ErrMin= 3.70D-06
 ErrMax= 3.70D-06  0.00D+00 EMaxC= 1.00D-01 BMatC= 1.17D-08 BMatP= 1.13D-07
 IDIUse=1 WtCom= 1.00D+00 WtEn= 0.00D+00
 Coeff-Com: -0.249D-04 0.140D-03 0.329D-03-0.220D-03-0.361D-02-0.122D-01
 Coeff-Com: -0.338D-01 0.430D-02 0.236D+00 0.810D+00
 Coeff:     -0.249D-04 0.140D-03 0.329D-03-0.220D-03-0.361D-02-0.122D-01
 Coeff:     -0.338D-01 0.430D-02 0.236D+00 0.810D+00
 Gap=     0.211 Goal=   None    Shift=    0.000
 RMSDP=1.23D-06 MaxDP=2.08D-04 DE=-1.27D-07 OVMax= 7.04D-05

 Cycle  11  Pass 1  IDiag  1:
 RMSU=  5.60D-07    CP:  6.81D-01  1.02D+00  8.86D-01  6.37D-01  9.82D-01
                    CP:  8.65D-01  9.31D-01  1.02D+00  9.72D-01  1.09D+00
 E= -1303.16237997210     Delta-E=       -0.000000017284 Rises=F Damp=F
 DIIS: error= 8.20D-07 at cycle  11 NSaved=  11.
 NSaved=11 IEnMin=11 EnMin= -1303.16237997210     IErMin=11 ErrMin= 8.20D-07
 ErrMax= 8.20D-07  0.00D+00 EMaxC= 1.00D-01 BMatC= 1.27D-09 BMatP= 1.17D-08
 IDIUse=1 WtCom= 1.00D+00 WtEn= 0.00D+00
 Coeff-Com: -0.314D-04 0.112D-03 0.372D-03 0.287D-03-0.521D-03-0.460D-02
 Coeff-Com: -0.200D-01-0.266D-01 0.377D-01 0.343D+00 0.670D+00
 Coeff:     -0.314D-04 0.112D-03 0.372D-03 0.287D-03-0.521D-03-0.460D-02
 Coeff:     -0.200D-01-0.266D-01 0.377D-01 0.343D+00 0.670D+00
 Gap=     0.211 Goal=   None    Shift=    0.000
 RMSDP=3.89D-07 MaxDP=3.93D-05 DE=-1.73D-08 OVMax= 1.23D-05

 Cycle  12  Pass 1  IDiag  1:
 RMSU=  2.19D-07    CP:  6.81D-01  1.02D+00  8.86D-01  6.37D-01  9.83D-01
                    CP:  8.65D-01  9.31D-01  1.03D+00  9.87D-01  1.22D+00
                    CP:  9.93D-01
 E= -1303.16237997347     Delta-E=       -0.000000001371 Rises=F Damp=F
 DIIS: error= 3.46D-07 at cycle  12 NSaved=  12.
 NSaved=12 IEnMin=12 EnMin= -1303.16237997347     IErMin=12 ErrMin= 3.46D-07
 ErrMax= 3.46D-07  0.00D+00 EMaxC= 1.00D-01 BMatC= 1.85D-10 BMatP= 1.27D-09
 IDIUse=1 WtCom= 1.00D+00 WtEn= 0.00D+00
 Coeff-Com: -0.100D-04 0.282D-04 0.117D-03 0.152D-03 0.280D-03-0.114D-03
 Coeff-Com: -0.346D-02-0.130D-01-0.241D-01 0.357D-01 0.311D+00 0.694D+00
 Coeff:     -0.100D-04 0.282D-04 0.117D-03 0.152D-03 0.280D-03-0.114D-03
 Coeff:     -0.346D-02-0.130D-01-0.241D-01 0.357D-01 0.311D+00 0.694D+00
 Gap=     0.211 Goal=   None    Shift=    0.000
 RMSDP=1.22D-07 MaxDP=1.36D-05 DE=-1.37D-09 OVMax= 5.82D-06

 Cycle  13  Pass 1  IDiag  1:
 RMSU=  7.39D-08    CP:  6.81D-01  1.02D+00  8.86D-01  6.37D-01  9.83D-01
                    CP:  8.65D-01  9.31D-01  1.03D+00  9.97D-01  1.25D+00
                    CP:  1.06D+00  9.81D-01
 E= -1303.16237997369     Delta-E=       -0.000000000216 Rises=F Damp=F
 DIIS: error= 1.11D-07 at cycle  13 NSaved=  13.
 NSaved=13 IEnMin=13 EnMin= -1303.16237997369     IErMin=13 ErrMin= 1.11D-07
 ErrMax= 1.11D-07  0.00D+00 EMaxC= 1.00D-01 BMatC= 1.72D-11 BMatP= 1.85D-10
 IDIUse=1 WtCom= 1.00D+00 WtEn= 0.00D+00
 Coeff-Com: -0.542D-06-0.949D-06 0.103D-04 0.310D-04 0.171D-03 0.450D-03
 Coeff-Com:  0.825D-03-0.236D-02-0.144D-01-0.178D-01 0.551D-01 0.281D+00
 Coeff-Com:  0.697D+00
 Coeff:     -0.542D-06-0.949D-06 0.103D-04 0.310D-04 0.171D-03 0.450D-03
 Coeff:      0.825D-03-0.236D-02-0.144D-01-0.178D-01 0.551D-01 0.281D+00
 Coeff:      0.697D+00
 Gap=     0.211 Goal=   None    Shift=    0.000
 RMSDP=4.94D-08 MaxDP=7.55D-06 DE=-2.16D-10 OVMax= 1.75D-06

 Cycle  14  Pass 1  IDiag  1:
 RMSU=  2.89D-08    CP:  6.81D-01  1.02D+00  8.86D-01  6.37D-01  9.83D-01
                    CP:  8.65D-01  9.31D-01  1.03D+00  9.96D-01  1.26D+00
                    CP:  1.08D+00  1.07D+00  9.01D-01
 E= -1303.16237997362     Delta-E=        0.000000000062 Rises=F Damp=F
 DIIS: error= 5.42D-08 at cycle  14 NSaved=  14.
 NSaved=14 IEnMin=13 EnMin= -1303.16237997369     IErMin=14 ErrMin= 5.42D-08
 ErrMax= 5.42D-08  0.00D+00 EMaxC= 1.00D-01 BMatC= 4.98D-12 BMatP= 1.72D-11
 IDIUse=1 WtCom= 1.00D+00 WtEn= 0.00D+00
 Coeff-Com:  0.122D-05-0.475D-05-0.113D-04-0.516D-05 0.531D-04 0.258D-03
 Coeff-Com:  0.987D-03 0.588D-03-0.488D-02-0.148D-01-0.170D-01 0.500D-01
 Coeff-Com:  0.393D+00 0.591D+00
 Coeff:      0.122D-05-0.475D-05-0.113D-04-0.516D-05 0.531D-04 0.258D-03
 Coeff:      0.987D-03 0.588D-03-0.488D-02-0.148D-01-0.170D-01 0.500D-01
 Coeff:      0.393D+00 0.591D+00
 Gap=     0.211 Goal=   None    Shift=    0.000
 RMSDP=1.81D-08 MaxDP=1.42D-06 DE= 6.23D-11 OVMax= 5.95D-07

 Cycle  15  Pass 1  IDiag  1:
 RMSU=  1.22D-08    CP:  6.81D-01  1.02D+00  8.86D-01  6.37D-01  9.83D-01
                    CP:  8.65D-01  9.31D-01  1.03D+00  9.96D-01  1.26D+00
                    CP:  1.09D+00  1.09D+00  9.70D-01  9.55D-01
 E= -1303.16237997369     Delta-E=       -0.000000000069 Rises=F Damp=F
 DIIS: error= 1.86D-08 at cycle  15 NSaved=  15.
 NSaved=15 IEnMin=15 EnMin= -1303.16237997369     IErMin=15 ErrMin= 1.86D-08
 ErrMax= 1.86D-08  0.00D+00 EMaxC= 1.00D-01 BMatC= 3.92D-13 BMatP= 4.98D-12
 IDIUse=1 WtCom= 1.00D+00 WtEn= 0.00D+00
 Coeff-Com:  0.630D-06-0.191D-05-0.625D-05-0.634D-05-0.182D-05 0.414D-04
 Coeff-Com:  0.306D-03 0.578D-03-0.493D-04-0.344D-02-0.158D-01-0.209D-01
 Coeff-Com:  0.687D-01 0.247D+00 0.723D+00
 Coeff:      0.630D-06-0.191D-05-0.625D-05-0.634D-05-0.182D-05 0.414D-04
 Coeff:      0.306D-03 0.578D-03-0.493D-04-0.344D-02-0.158D-01-0.209D-01
 Coeff:      0.687D-01 0.247D+00 0.723D+00
 Gap=     0.211 Goal=   None    Shift=    0.000
 RMSDP=7.49D-09 MaxDP=9.94D-07 DE=-6.91D-11 OVMax= 2.80D-07

 SCF Done:  E(RMN15) =  -1303.16237997     A.U. after   15 cycles
            NFock= 15  Conv=0.75D-08     -V/T= 2.0036
 KE= 1.298482568865D+03 PE=-8.448033828643D+03 EE= 3.140095255206D+03
 Leave Link  502 at Tue Dec  5 08:36:22 2023, MaxMem=  2147483648 cpu:            9083.4 elap:             354.7
 (Enter /opt/gaussian/g16-c01/g16/l601.exe)
 Copying SCF densities to generalized density rwf, IOpCl= 0 IROHF=0.

 **********************************************************************

            Population analysis using the SCF Density.

 **********************************************************************

 Orbital symmetries:
       Occupied  (A) (A) (A) (A) (A) (A) (A) (A) (A) (A) (A) (A)
                 (A) (A) (A) (A) (A) (A) (A) (A) (A) (A) (A) (A)
                 (A) (A) (A) (A) (A) (A) (A) (A) (A) (A) (A) (A)
                 (A) (A) (A) (A) (A) (A) (A) (A) (A) (A) (A) (A)
                 (A) (A) (A) (A) (A) (A) (A) (A) (A) (A) (A) (A)
                 (A) (A) (A) (A) (A) (A) (A) (A) (A) (A) (A) (A)
                 (A) (A) (A) (A) (A) (A) (A) (A) (A) (A) (A) (A)
                 (A) (A) (A) (A) (A) (A) (A) (A) (A) (A) (A) (A)
                 (A) (A) (A) (A) (A) (A) (A) (A) (A) (A) (A) (A)
                 (A) (A) (A)
       Virtual   (A) (A) (A) (A) (A) (A) (A) (A) (A) (A) (A) (A)
                 (A) (A) (A) (A) (A) (A) (A) (A) (A) (A) (A) (A)
                 (A) (A) (A) (A) (A) (A) (A) (A) (A) (A) (A) (A)
                 (A) (A) (A) (A) (A) (A) (A) (A) (A) (A) (A) (A)
                 (A) (A) (A) (A) (A) (A) (A) (A) (A) (A) (A) (A)
                 (A) (A) (A) (A) (A) (A) (A) (A) (A) (A) (A) (A)
                 (A) (A) (A) (A) (A) (A) (A) (A) (A) (A) (A) (A)
                 (A) (A) (A) (A) (A) (A) (A) (A) (A) (A) (A) (A)
                 (A) (A) (A) (A) (A) (A) (A) (A) (A) (A) (A) (A)
                 (A) (A) (A) (A) (A) (A) (A) (A) (A) (A) (A) (A)
                 (A) (A) (A) (A) (A) (A) (A) (A) (A) (A) (A) (A)
                 (A) (A) (A) (A) (A) (A) (A) (A) (A) (A) (A) (A)
                 (A) (A) (A) (A) (A) (A) (A) (A) (A) (A) (A) (A)
                 (A) (A) (A) (A) (A) (A) (A) (A) (A) (A) (A) (A)
                 (A) (A) (A) (A) (A) (A) (A) (A) (A) (A) (A) (A)
                 (A) (A) (A) (A) (A) (A) (A) (A) (A) (A) (A) (A)
                 (A) (A) (A) (A) (A) (A) (A) (A) (A) (A) (A) (A)
                 (A) (A) (A) (A) (A) (A) (A) (A) (A) (A) (A) (A)
                 (A) (A) (A) (A) (A) (A) (A) (A) (A) (A) (A) (A)
                 (A) (A) (A) (A) (A) (A) (A) (A) (A) (A) (A) (A)
                 (A) (A) (A) (A) (A) (A) (A) (A) (A) (A) (A) (A)
                 (A) (A) (A) (A) (A) (A) (A) (A) (A) (A) (A) (A)
                 (A) (A) (A) (A) (A) (A) (A) (A) (A) (A) (A) (A)
                 (A) (A) (A) (A) (A) (A) (A) (A) (A) (A) (A) (A)
                 (A) (A) (A) (A) (A) (A) (A) (A) (A) (A) (A) (A)
                 (A) (A) (A) (A) (A) (A) (A) (A) (A) (A) (A) (A)
                 (A) (A) (A) (A) (A) (A) (A) (A) (A) (A) (A) (A)
                 (A) (A) (A) (A) (A) (A) (A) (A) (A) (A) (A) (A)
                 (A) (A) (A) (A) (A) (A) (A) (A) (A) (A) (A) (A)
                 (A) (A) (A) (A) (A) (A) (A) (A) (A) (A) (A) (A)
                 (A) (A) (A) (A) (A) (A) (A) (A) (A) (A) (A) (A)
                 (A) (A) (A) (A) (A) (A) (A) (A) (A) (A) (A) (A)
                 (A) (A) (A) (A) (A) (A) (A) (A) (A) (A) (A) (A)
                 (A) (A) (A) (A) (A) (A) (A) (A) (A) (A) (A) (A)
                 (A) (A) (A) (A) (A) (A) (A) (A) (A) (A) (A) (A)
                 (A) (A) (A) (A) (A) (A) (A) (A) (A) (A) (A) (A)
                 (A) (A) (A) (A) (A) (A) (A) (A) (A) (A) (A) (A)
                 (A) (A) (A) (A) (A) (A) (A) (A) (A) (A) (A) (A)
                 (A) (A) (A) (A) (A) (A) (A) (A) (A) (A) (A) (A)
                 (A) (A) (A) (A) (A) (A) (A) (A) (A) (A) (A) (A)
                 (A) (A) (A) (A) (A) (A) (A) (A) (A) (A) (A) (A)
                 (A) (A) (A) (A) (A) (A) (A) (A) (A) (A) (A) (A)
                 (A) (A) (A) (A) (A) (A) (A) (A) (A) (A) (A) (A)
                 (A) (A) (A) (A) (A) (A) (A) (A) (A) (A) (A) (A)
                 (A) (A) (A) (A) (A) (A) (A) (A) (A) (A) (A) (A)
                 (A) (A) (A) (A) (A) (A) (A) (A) (A) (A) (A) (A)
                 (A) (A) (A) (A) (A) (A) (A) (A) (A) (A) (A) (A)
                 (A) (A) (A) (A) (A) (A) (A) (A) (A) (A) (A) (A)
                 (A) (A) (A) (A) (A) (A) (A) (A) (A) (A) (A) (A)
                 (A) (A) (A) (A) (A) (A) (A) (A) (A) (A) (A) (A)
                 (A) (A) (A) (A) (A) (A) (A) (A) (A) (A) (A) (A)
                 (A) (A) (A) (A) (A) (A) (A) (A) (A) (A) (A) (A)
                 (A) (A) (A) (A) (A) (A) (A) (A) (A) (A) (A) (A)
                 (A) (A) (A) (A) (A) (A) (A) (A) (A) (A) (A) (A)
                 (A) (A) (A) (A) (A) (A) (A) (A) (A) (A) (A) (A)
                 (A) (A) (A) (A) (A) (A) (A) (A) (A) (A) (A) (A)
                 (A) (A) (A) (A) (A) (A) (A) (A) (A) (A) (A) (A)
                 (A) (A) (A) (A) (A) (A) (A) (A) (A) (A) (A) (A)
                 (A) (A) (A) (A) (A) (A) (A) (A) (A) (A) (A) (A)
                 (A) (A) (A) (A) (A) (A) (A) (A) (A) (A) (A) (A)
                 (A) (A) (A) (A) (A) (A) (A) (A) (A) (A) (A) (A)
                 (A) (A) (A) (A) (A) (A) (A) (A) (A) (A) (A) (A)
                 (A) (A) (A) (A) (A) (A) (A) (A) (A) (A) (A) (A)
                 (A) (A) (A) (A) (A) (A) (A) (A) (A) (A) (A) (A)
                 (A) (A) (A) (A) (A) (A) (A) (A) (A) (A) (A)
 The electronic state is 1-A.
 Alpha  occ. eigenvalues --  -18.83380 -18.81662 -14.10157 -14.09954 -14.05506
 Alpha  occ. eigenvalues --  -14.05380 -10.10459 -10.10011 -10.08740 -10.08567
 Alpha  occ. eigenvalues --  -10.07801 -10.07598 -10.07553 -10.07425 -10.05928
 Alpha  occ. eigenvalues --  -10.05680 -10.04076 -10.03690 -10.03620 -10.03413
 Alpha  occ. eigenvalues --  -10.03155 -10.03138 -10.02972 -10.02850 -10.02843
 Alpha  occ. eigenvalues --  -10.02824 -10.02599 -10.02485 -10.02449 -10.02413
 Alpha  occ. eigenvalues --   -1.10730  -1.09137  -0.99562  -0.99360  -0.94747
 Alpha  occ. eigenvalues --   -0.92957  -0.89062  -0.88784  -0.82714  -0.82440
 Alpha  occ. eigenvalues --   -0.81587  -0.80791  -0.77892  -0.77740  -0.77571
 Alpha  occ. eigenvalues --   -0.76154  -0.74466  -0.69294  -0.68983  -0.68803
 Alpha  occ. eigenvalues --   -0.67902  -0.66197  -0.66015  -0.63927  -0.62230
 Alpha  occ. eigenvalues --   -0.61098  -0.60012  -0.59070  -0.57955  -0.57727
 Alpha  occ. eigenvalues --   -0.56274  -0.55648  -0.53670  -0.53406  -0.51857
 Alpha  occ. eigenvalues --   -0.51564  -0.51110  -0.50132  -0.49418  -0.49222
 Alpha  occ. eigenvalues --   -0.48581  -0.48493  -0.48035  -0.47845  -0.46862
 Alpha  occ. eigenvalues --   -0.46324  -0.46043  -0.45857  -0.45242  -0.44970
 Alpha  occ. eigenvalues --   -0.44064  -0.43832  -0.43124  -0.43081  -0.42501
 Alpha  occ. eigenvalues --   -0.42262  -0.42112  -0.41925  -0.41546  -0.41185
 Alpha  occ. eigenvalues --   -0.40542  -0.39836  -0.39747  -0.39496  -0.38685
 Alpha  occ. eigenvalues --   -0.38608  -0.38500  -0.38161  -0.37882  -0.37772
 Alpha  occ. eigenvalues --   -0.35718  -0.34704  -0.34018  -0.29582  -0.29028
 Alpha  occ. eigenvalues --   -0.27787  -0.26933  -0.26509  -0.26022  -0.21872
 Alpha  occ. eigenvalues --   -0.21738
 Alpha virt. eigenvalues --   -0.00636   0.00543   0.02239   0.02371   0.02659
 Alpha virt. eigenvalues --    0.02750   0.03417   0.03780   0.04339   0.04629
 Alpha virt. eigenvalues --    0.04725   0.05044   0.05402   0.05998   0.06106
 Alpha virt. eigenvalues --    0.06552   0.06764   0.06949   0.07123   0.07356
 Alpha virt. eigenvalues --    0.07520   0.07679   0.07852   0.08294   0.08673
 Alpha virt. eigenvalues --    0.08841   0.08974   0.09412   0.09483   0.09663
 Alpha virt. eigenvalues --    0.10088   0.10403   0.10507   0.10545   0.10838
 Alpha virt. eigenvalues --    0.11004   0.11229   0.11581   0.11678   0.11786
 Alpha virt. eigenvalues --    0.11902   0.12207   0.12712   0.12961   0.13197
 Alpha virt. eigenvalues --    0.13292   0.13620   0.13783   0.14053   0.14257
 Alpha virt. eigenvalues --    0.14295   0.14597   0.14793   0.14926   0.15077
 Alpha virt. eigenvalues --    0.15400   0.15571   0.15652   0.15807   0.15835
 Alpha virt. eigenvalues --    0.16032   0.16177   0.16257   0.16661   0.16777
 Alpha virt. eigenvalues --    0.16815   0.17019   0.17221   0.17303   0.17432
 Alpha virt. eigenvalues --    0.17645   0.17783   0.17936   0.18128   0.18265
 Alpha virt. eigenvalues --    0.18353   0.18498   0.18653   0.18817   0.19096
 Alpha virt. eigenvalues --    0.19244   0.19418   0.19571   0.19849   0.20072
 Alpha virt. eigenvalues --    0.20129   0.20412   0.20440   0.20746   0.20891
 Alpha virt. eigenvalues --    0.21049   0.21155   0.21573   0.21645   0.21707
 Alpha virt. eigenvalues --    0.21890   0.22017   0.22268   0.22366   0.22727
 Alpha virt. eigenvalues --    0.22787   0.23116   0.23282   0.23394   0.23583
 Alpha virt. eigenvalues --    0.23778   0.23901   0.24254   0.24273   0.24564
 Alpha virt. eigenvalues --    0.24667   0.24946   0.24995   0.25377   0.25540
 Alpha virt. eigenvalues --    0.25714   0.26025   0.26164   0.26473   0.26556
 Alpha virt. eigenvalues --    0.26836   0.26895   0.27347   0.27609   0.27889
 Alpha virt. eigenvalues --    0.28080   0.28412   0.28614   0.28871   0.28955
 Alpha virt. eigenvalues --    0.29302   0.29603   0.29695   0.29920   0.30143
 Alpha virt. eigenvalues --    0.30421   0.30501   0.30724   0.30907   0.31225
 Alpha virt. eigenvalues --    0.31598   0.31723   0.31890   0.32163   0.32514
 Alpha virt. eigenvalues --    0.32795   0.33328   0.33353   0.33479   0.33670
 Alpha virt. eigenvalues --    0.34088   0.34376   0.34605   0.34814   0.34907
 Alpha virt. eigenvalues --    0.35076   0.35251   0.35522   0.35646   0.35847
 Alpha virt. eigenvalues --    0.35982   0.36089   0.36282   0.36416   0.36605
 Alpha virt. eigenvalues --    0.36894   0.37000   0.37253   0.37498   0.37590
 Alpha virt. eigenvalues --    0.37815   0.38171   0.38266   0.38472   0.38578
 Alpha virt. eigenvalues --    0.38855   0.38995   0.39036   0.39314   0.39628
 Alpha virt. eigenvalues --    0.39768   0.40345   0.40433   0.40570   0.40682
 Alpha virt. eigenvalues --    0.41008   0.41113   0.41181   0.41625   0.41862
 Alpha virt. eigenvalues --    0.42310   0.42355   0.42865   0.43119   0.43694
 Alpha virt. eigenvalues --    0.44115   0.44445   0.44874   0.44950   0.45429
 Alpha virt. eigenvalues --    0.46052   0.46623   0.46743   0.47047   0.47823
 Alpha virt. eigenvalues --    0.48027   0.48562   0.49095   0.49937   0.50119
 Alpha virt. eigenvalues --    0.50579   0.51071   0.51536   0.52076   0.52547
 Alpha virt. eigenvalues --    0.53050   0.53805   0.53953   0.54855   0.55419
 Alpha virt. eigenvalues --    0.55639   0.56024   0.56114   0.57117   0.57370
 Alpha virt. eigenvalues --    0.57693   0.58923   0.59379   0.59771   0.60289
 Alpha virt. eigenvalues --    0.60836   0.61109   0.61451   0.61708   0.62168
 Alpha virt. eigenvalues --    0.62880   0.63304   0.63763   0.64346   0.64668
 Alpha virt. eigenvalues --    0.65200   0.65269   0.65718   0.66037   0.66268
 Alpha virt. eigenvalues --    0.66478   0.66608   0.67202   0.67543   0.67617
 Alpha virt. eigenvalues --    0.67898   0.68158   0.68221   0.68684   0.69027
 Alpha virt. eigenvalues --    0.69117   0.69321   0.69598   0.69977   0.70381
 Alpha virt. eigenvalues --    0.70431   0.70564   0.70879   0.71150   0.71470
 Alpha virt. eigenvalues --    0.71751   0.71775   0.72274   0.72408   0.72610
 Alpha virt. eigenvalues --    0.73324   0.73565   0.73650   0.74034   0.74614
 Alpha virt. eigenvalues --    0.74786   0.75506   0.75706   0.75905   0.76446
 Alpha virt. eigenvalues --    0.76796   0.77004   0.77332   0.77677   0.77855
 Alpha virt. eigenvalues --    0.78372   0.78546   0.78804   0.79037   0.79107
 Alpha virt. eigenvalues --    0.79535   0.80012   0.80142   0.80932   0.81101
 Alpha virt. eigenvalues --    0.81454   0.81792   0.82107   0.82367   0.82591
 Alpha virt. eigenvalues --    0.83236   0.83327   0.84216   0.84556   0.84769
 Alpha virt. eigenvalues --    0.85294   0.85560   0.85881   0.86586   0.87230
 Alpha virt. eigenvalues --    0.88170   0.88795   0.89296   0.90139   0.91005
 Alpha virt. eigenvalues --    0.92112   0.92559   0.92694   0.93594   0.94345
 Alpha virt. eigenvalues --    0.95056   0.95233   0.95767   0.95978   0.96743
 Alpha virt. eigenvalues --    0.96967   0.97276   0.97686   0.98206   0.98757
 Alpha virt. eigenvalues --    0.99180   0.99485   1.00155   1.00938   1.02142
 Alpha virt. eigenvalues --    1.02316   1.02611   1.03220   1.03470   1.04036
 Alpha virt. eigenvalues --    1.04212   1.05240   1.05475   1.05648   1.06575
 Alpha virt. eigenvalues --    1.07059   1.07626   1.07892   1.07986   1.08931
 Alpha virt. eigenvalues --    1.09098   1.09978   1.10022   1.10751   1.11106
 Alpha virt. eigenvalues --    1.12418   1.12705   1.13257   1.13543   1.14065
 Alpha virt. eigenvalues --    1.14537   1.14913   1.15764   1.16401   1.16873
 Alpha virt. eigenvalues --    1.17594   1.18395   1.18586   1.20979   1.21855
 Alpha virt. eigenvalues --    1.22241   1.24371   1.24825   1.25231   1.25684
 Alpha virt. eigenvalues --    1.26237   1.27166   1.28325   1.29069   1.30273
 Alpha virt. eigenvalues --    1.31496   1.32177   1.33622   1.33969   1.34882
 Alpha virt. eigenvalues --    1.35184   1.35846   1.36569   1.36844   1.37036
 Alpha virt. eigenvalues --    1.38136   1.38440   1.42410   1.43111   1.43359
 Alpha virt. eigenvalues --    1.43515   1.44006   1.44933   1.45310   1.46812
 Alpha virt. eigenvalues --    1.47226   1.48958   1.49509   1.49840   1.50509
 Alpha virt. eigenvalues --    1.50808   1.51193   1.52085   1.52186   1.53216
 Alpha virt. eigenvalues --    1.53433   1.53964   1.55012   1.55127   1.55341
 Alpha virt. eigenvalues --    1.55607   1.56040   1.56496   1.56794   1.56919
 Alpha virt. eigenvalues --    1.57093   1.57341   1.57722   1.58651   1.59152
 Alpha virt. eigenvalues --    1.59692   1.59706   1.60046   1.61351   1.61673
 Alpha virt. eigenvalues --    1.62058   1.62126   1.62949   1.63055   1.63200
 Alpha virt. eigenvalues --    1.63653   1.63697   1.63912   1.64545   1.65886
 Alpha virt. eigenvalues --    1.66206   1.66424   1.66771   1.66810   1.67012
 Alpha virt. eigenvalues --    1.67927   1.68642   1.69178   1.69416   1.69808
 Alpha virt. eigenvalues --    1.70959   1.71517   1.72188   1.72522   1.72782
 Alpha virt. eigenvalues --    1.73042   1.73421   1.73860   1.74001   1.75045
 Alpha virt. eigenvalues --    1.75545   1.76321   1.76722   1.77098   1.77503
 Alpha virt. eigenvalues --    1.77673   1.78301   1.78963   1.79313   1.79682
 Alpha virt. eigenvalues --    1.80053   1.80264   1.80441   1.81471   1.82058
 Alpha virt. eigenvalues --    1.82152   1.82594   1.83309   1.84021   1.84634
 Alpha virt. eigenvalues --    1.85003   1.86014   1.87353   1.87520   1.88187
 Alpha virt. eigenvalues --    1.89267   1.89715   1.90011   1.90694   1.91086
 Alpha virt. eigenvalues --    1.91339   1.92048   1.92357   1.93365   1.94319
 Alpha virt. eigenvalues --    1.94808   1.95509   1.95721   1.96473   1.97598
 Alpha virt. eigenvalues --    1.98298   1.99061   1.99745   1.99961   2.01752
 Alpha virt. eigenvalues --    2.02371   2.02858   2.03322   2.03419   2.03846
 Alpha virt. eigenvalues --    2.04595   2.05469   2.05644   2.06231   2.07715
[...]
 0060,0.00001810,-0.00001334,-0.00002027,-0.00001566,0.00000502,0.00002
 745,0.00021046,-0.00013854,-0.00008929,-0.00100697,-0.00094760,-0.0007
 7017,-0.00007757,0.00012670,0.00000926,0.00048747,-0.00042987,-0.00058
 628,-0.00004462,0.00002401,0.00011237,-0.00025747,0.00038978,0.0001694
 2,-0.00020259,0.00068610,-0.00012514,-0.00161417,-0.00201894,0.0025342
 3,-0.00050495,-0.00019191,-0.00042659,0.11183211,-0.24639866,-0.027740
 45,0.00000334,-0.00000923,-0.00000495,0.00000349,0.00000765,-0.0000016
 9,-0.00000113,-0.00000936,-0.00000397,0.00000597,-0.00000134,0.0000034
 6,-0.00000302,-0.00003330,0.00000105,0.00000988,0.00000412,-0.00001084
 ,-0.00001560,-0.00002378,0.00001910,-0.00000584,0.00001605,0.00001198,
 -0.00001057,0.00000756,-0.00000810,-0.00002772,-0.00001898,0.00003928,
 0.00000221,-0.00000117,-0.00001003,0.00001317,-0.00004957,0.00001042,-
 0.00000209,0.00000108,0.00000373,-0.00000394,-0.00000241,0.00000660,0.
 00000835,-0.00000247,-0.00000904,0.00000942,-0.00000189,-0.00000239,-0
 .00000466,0.00000193,-0.00000411,-0.00000508,0.00000046,0.00000307,-0.
 00001135,0.00000511,-0.00000117,-0.00000748,-0.00000041,0.00000805,0.0
 0001735,-0.00001888,-0.00000445,0.00001387,0.00000197,-0.00000335,0.00
 000505,-0.00000655,-0.00000585,-0.00002538,-0.00000382,0.00001525,-0.0
 0000410,-0.00000297,-0.00000920,-0.00001467,0.00003594,-0.00002871,0.0
 0000313,-0.00000739,-0.00007820,0.00031599,-0.00004451,0.00053001,0.00
 021032,-0.00012604,0.00024602,0.00031177,0.00067342,0.00020322,0.00182
 635,-0.00182951,-0.00055487,-0.11572785,0.27676144,0.00002285,-0.00002
 022,-0.00003321,0.00009479,-0.00029034,-0.00015581,-0.00004635,0.00010
 187,0.00004111,0.00009394,0.00022560,-0.00007833,-0.00194488,-0.000977
 19,-0.00186281,-0.00554881,0.00887859,0.00100106,0.00002569,-0.0000914
 2,-0.00001862,-0.00013983,-0.00011902,0.00010874,0.00003121,-0.0000002
 9,-0.00002813,-0.00000785,-0.00002099,0.00000562,0.00002229,-0.0000492
 6,-0.00003566,-0.00004150,0.00000111,0.00006046,-0.00006428,0.00002249
 ,-0.00002152,-0.00005128,-0.00001671,0.00007071,0.00001576,0.00009018,
 0.00002123,0.00008145,0.00007451,-0.00017504,-0.00000610,0.00000231,0.
 00000516,0.00000205,0.00000382,-0.00000187,-0.00000786,0.00000443,0.00
 000853,0.00000570,-0.00000229,-0.00001088,0.00043349,0.00019687,0.0002
 4782,-0.00007757,0.00007435,0.00050373,-0.00004483,0.00003324,0.000129
 49,-0.00023847,0.00023262,0.00018104,0.00006714,-0.00002087,-0.0001214
 3,0.00009286,-0.00005494,-0.00000430,-0.00023364,0.00032732,0.00024892
 ,0.00056289,0.00119417,0.00054760,-0.01104495,0.01694443,0.00140217,0.
 01955482,-0.02914123,-0.05325140,-0.00000254,0.00000334,0.00000530,-0.
 00000412,-0.00000344,0.00000068,0.00000192,0.00000551,0.00000119,0.000
 00159,0.00000063,-0.00000064,0.00000058,0.00001062,0.00000145,-0.00000
 197,0.00000010,0.00000633,0.00000498,0.00000623,-0.00000770,0.00000050
 ,-0.00000569,-0.00000941,-0.00000178,0.00000853,0.00000308,0.00001187,
 -0.00000570,-0.00000404,-0.00000938,0.00000652,0.00000393,-0.00000353,
 0.00000768,-0.00000214,0.00000040,-0.00000040,-0.00000147,0.00000168,-
 0.00000076,-0.00000180,-0.00000222,0.00000039,0.00000537,-0.00000266,0
 .00000039,0.00000197,0.00000126,-0.00000071,0.00000134,0.00000136,0.00
 000091,-0.00000211,0.00000171,-0.00000126,-0.00000079,0.00000298,0.000
 00027,-0.00000223,-0.00000616,0.00000568,0.00000083,-0.00000199,-0.000
 00061,0.00000278,-0.00000239,0.00000069,0.00000115,0.00000935,0.000001
 03,-0.00000457,-0.00003199,-0.00000289,-0.00001628,0.00000660,0.000023
 28,0.00001459,-0.00027783,-0.00010547,-0.00027478,0.00021427,0.0004868
 5,0.00043790,0.00087383,0.00008259,0.00020146,0.00103745,-0.00026041,0
 .00103870,0.01391796,-0.02550324,-0.00243326,-0.01736950,0.02761907,0.
 05220115,-0.25760459,-0.23453731,-0.01409084,0.00036054,-0.00085922,-0
 .00037441,0.00049124,-0.00076700,-0.00070638,-0.00014701,0.00086996,-0
 .00034172,0.00009561,0.00068145,-0.00055150,-0.00027847,-0.00075586,-0
 .00015373,-0.00040692,-0.00011348,0.00184330,-0.00081310,-0.00270315,0
 .00018330,-0.00029482,-0.00008929,0.00021256,0.00028667,0.00022128,-0.
 00008966,0.00035734,-0.00064694,-0.00029766,-0.00021354,-0.00009251,0.
 00018678,0.00270710,-0.00098042,-0.00321982,-0.00009631,0.00041537,0.0
 0172456,0.00000988,0.00060307,-0.00020171,0.00092236,-0.00057237,-0.00
 024142,0.00007400,-0.00000432,-0.00005240,-0.00004821,0.00007795,0.000
 11658,-0.00004816,0.00023661,0.00000782,0.00003635,0.00001889,-0.00001
 870,-0.00102180,0.00222538,0.00151335,-0.00011615,-0.00070310,0.000281
 43,-0.02285393,-0.02155740,0.00053116,-0.00013838,0.00192336,-0.000140
 99,0.00125377,-0.00042720,0.00016897,0.00019888,0.00098099,-0.00028900
 ,-0.00019941,-0.00024544,-0.00004848,0.00064580,0.00120773,-0.00030460
 ,0.00014751,-0.00045678,0.00005442,0.00008375,0.00033216,-0.00013516,0
 .00005653,-0.00004267,-0.00006106,0.00000694,0.00001756,-0.00001530,0.
 00004669,-0.00009234,-0.00006935,0.00000191,0.00005772,0.00007517,-0.0
 0006784,0.00015160,-0.00001911,-0.00005037,-0.00001921,0.00002012,0.00
 005573,0.00011933,-0.00005439,-0.00001615,-0.00000638,0.00013934,-0.00
 080354,0.00151337,0.00007618,0.00001925,-0.00007778,-0.00011377,-0.000
 01573,0.00013100,-0.00017234,0.00001874,0.00014777,0.00025645,-0.00001
 824,-0.00003043,0.00000689,0.00000700,0.00002094,0.00002722,0.00001316
 ,0.00000015,-0.00006478,0.00000843,-0.00002284,-0.00004408,-0.00003887
 ,0.00005135,-0.00008461,-0.00001720,-0.00010011,0.00000174,0.00016299,
 0.00007351,0.00012953,0.00001879,-0.00000993,-0.00000972,-0.00005894,0
 .00008407,0.00001386,-0.00006296,0.00001297,-0.00000888,0.00002203,0.0
 0002922,0.00003023,0.00005094,0.00001143,-0.00003998,-0.00000378,0.000
 05072,0.00001030,-0.00001158,-0.00007438,0.00025568,0.00023012,-0.0003
 9789,-0.00004852,-0.00008031,-0.00005673,0.00015428,-0.00000191,0.0000
 3426,0.00004751,-0.00010367,0.00005034,-0.00002004,-0.00003415,-0.0000
 6054,0.00008705,-0.00009063,-0.00007397,0.00002018,0.27749013,-0.25748
 159,-0.26607975,-0.04529385,0.00007111,-0.00027656,-0.00020982,-0.0001
 3005,0.00011118,-0.00002348,-0.00011472,-0.00124166,0.00038518,-0.0000
 4773,0.00036777,0.00026284,-0.00005794,0.00004401,-0.00003678,-0.00027
 172,-0.00075212,0.00112489,-0.00009662,0.00136197,0.00023064,0.0000607
 8,0.00003005,-0.00011517,0.00016443,0.00014434,-0.00010316,-0.00030948
 ,0.00029349,-0.00006966,-0.00007234,-0.00003703,-0.00002033,0.00312039
 ,0.00087942,-0.00384520,-0.00014778,0.00021525,-0.00024530,0.00090445,
 0.00042761,-0.00062077,0.00088000,-0.00085314,0.00076279,-0.00000863,0
 .00000535,-0.00000474,-0.00001549,-0.00002519,-0.00001844,-0.00052133,
 -0.00024853,0.00027978,-0.00001324,0.00001647,0.00003025,0.00025550,0.
 00233644,-0.00072097,0.00029817,-0.00114524,-0.00051618,-0.00023242,0.
 00096234,0.00491064,0.00011330,-0.00043416,0.00041146,-0.00035964,-0.0
 0089239,0.00006850,0.00018308,0.00187413,0.00030204,0.00017114,-0.0010
 4611,-0.00035403,0.00007047,-0.00013394,-0.00000566,0.00002682,-0.0001
 1299,-0.00006250,-0.00005896,-0.00000061,0.00000863,0.00000347,-0.0000
 3108,0.00000357,-0.00006172,-0.00000357,0.00001114,-0.00001693,-0.0000
 2035,0.00002924,-0.00006318,0.00006637,-0.00003272,0.00009700,-0.00006
 384,0.00001605,0.00005286,-0.00000732,0.00002564,-0.00002964,-0.000066
 76,0.00002139,-0.00004873,0.00006437,0.00000614,-0.00039569,-0.0010753
 8,0.00010638,0.00000217,-0.00000894,-0.00001315,-0.00017161,-0.0000517
 6,-0.00005499,-0.00010202,-0.00014579,-0.00029708,-0.00001102,-0.00002
 123,-0.00001918,0.00001818,-0.00001791,0.00004366,0.00000498,-0.000016
 22,-0.00000047,-0.00002844,0.00001653,0.00003447,0.00007270,0.00002072
 ,0.00003911,-0.00000422,-0.00004227,0.00000246,0.00038973,0.00019032,-
 0.00030604,-0.00007141,-0.00007715,0.00004265,0.00025137,0.00017467,0.
 00005833,0.00002837,-0.00001526,0.00002093,0.00000824,-0.00001255,0.00
 000397,0.00000141,0.00000235,-0.00000728,-0.00009716,0.00002743,0.0000
 3414,0.00000680,-0.00002823,0.00000467,-0.00034788,0.00022031,0.000133
 92,0.00000918,0.00000520,0.00002414,-0.00001571,0.00002989,0.00000228,
 -0.00001049,0.00002836,0.00000820,0.00001504,-0.00000355,-0.00000030,-
 0.00002593,0.00000934,0.00000203,0.25405753,0.26508657,-0.04593737,-0.
 06878532,-0.02982502,0.00048174,-0.00071848,-0.00066739,-0.00008181,0.
 00026269,0.00004810,0.00030715,0.00144066,-0.00085817,-0.00001049,-0.0
 0002190,0.00005903,-0.00007123,-0.00041198,-0.00012128,-0.00024994,-0.
 00038979,-0.00091765,-0.00207328,-0.00156771,0.00190869,0.00008839,-0.
 00002244,-0.00001174,0.00004165,-0.00013907,0.00003842,0.00017413,-0.0
 0025724,-0.00012214,-0.00015554,0.00023959,0.00067008,-0.00103898,0.00
 094767,0.00032573,-0.00034006,0.00047931,-0.00085090,-0.00019439,0.000
 19704,0.00043100,0.00142413,-0.00133440,0.00043729,-0.00001629,-0.0000
 0481,0.00002247,-0.00000936,0.00007701,0.00006119,-0.00006361,0.000006
 83,0.00002634,0.00008446,-0.00008937,-0.00016612,0.00359252,-0.0026959
 3,-0.00251456,0.00060126,-0.00021407,-0.00056812,0.02853898,0.02606745
 ,-0.00558151,-0.00131424,-0.00011382,0.00126795,0.00061122,0.00144028,
 -0.00085159,0.00054509,0.00214586,-0.00076260,0.00018513,-0.00013009,0
 .00002485,0.00032171,0.00058841,-0.00011847,-0.00005226,-0.00004061,0.
 00008102,0.00002015,0.00012645,-0.00010778,-0.00000770,0.00002874,0.00
 001164,0.00000291,-0.00001337,0.00000119,-0.00000641,0.00003822,-0.000
 01355,-0.00004293,-0.00001016,-0.00000587,-0.00001534,0.00008680,-0.00
 001353,-0.00003964,-0.00003294,-0.00006298,0.00006518,0.00011579,-0.00
 004644,0.00014591,-0.00016782,-0.00014528,0.00033489,-0.00050062,0.000
 80652,0.00038561,-0.00008308,0.00005616,0.00001175,-0.00003928,0.00000
 192,-0.00015145,-0.00005713,-0.00019693,0.00000633,-0.00000323,-0.0000
 0245,0.00000310,0.00001486,-0.00001718,-0.00001260,0.00000748,0.000015
 53,-0.00001041,0.00000161,-0.00002532,-0.00002455,-0.00003418,0.000002
 21,0.00001058,0.00002992,-0.00000310,0.00003290,-0.00012267,0.00023382
 ,0.00011852,0.00017737,-0.00009394,-0.00007396,0.00001692,-0.00007363,
 -0.00004874,0.00002356,-0.00000425,-0.00006764,0.00000305,-0.00002150,
 0.00006566,0.00000710,-0.00001941,0.00025245,-0.00005563,-0.00038207,-
 0.00005318,0.00000340,-0.00000640,-0.00011354,0.00009576,0.00003852,-0
 .00001213,-0.00002462,0.00002855,0.00002356,0.00000377,-0.00002820,-0.
 00004235,-0.00002332,-0.00001234,-0.00002402,-0.00001830,0.00002867,-0
 .00000675,-0.00005343,0.00001453,0.01381273,0.04349993,0.03841611,0.00
 038786,-0.00004471,-0.00030431,-0.21158766,-0.07533599,0.23783239,0.00
 006011,-0.00014848,-0.00007211,-0.00001422,-0.00042587,-0.00000597,0.0
 0008644,0.00005006,-0.00013149,-0.00027682,-0.00027718,0.00034589,-0.0
 0005652,0.00015577,0.00010088,-0.00123016,0.00044736,0.00002680,-0.000
 05075,0.00000367,0.00005250,-0.00000093,0.00003884,-0.00001050,0.00002
 262,0.00003288,0.00009346,0.00022571,0.00008667,-0.00015725,0.00011467
 ,-0.00005457,-0.00010865,0.00203312,-0.00333886,-0.00344574,0.00000508
 ,-0.00007128,-0.00003140,0.00034887,-0.00019184,-0.00038085,0.00000428
 ,0.00000490,-0.00001055,0.00000275,-0.00000162,0.00000510,0.00001142,-
 0.00003103,-0.00001249,-0.00001746,-0.00011099,0.00006728,0.00010870,0
 .00002733,-0.00010316,0.00336182,0.00323320,0.00025497,-0.00028549,-0.
 00000547,0.00029076,-0.01641337,-0.00347508,0.01569849,-0.00004227,0.0
 0003324,0.00005818,0.00009223,-0.00058700,0.00129510,-0.00013381,-0.00
 002490,0.00018322,-0.00034151,-0.00082155,-0.00048072,-0.00004148,-0.0
 0000218,0.00008309,-0.00004607,0.00003563,0.00009673,0.00000493,-0.000
 01193,-0.00000704,0.00000007,0.00000788,-0.00000302,0.00000096,-0.0000
 1404,-0.00000826,0.00000761,0.00000565,0.00000832,-0.00001058,-0.00005
 118,0.00000116,0.00001306,0.00001075,0.00001097,-0.00005736,-0.0000232
 7,0.00001444,0.00002887,0.00004582,-0.00002536,-0.00001341,0.00001484,
 -0.00000908,0.00035261,0.00066347,0.00061930,0.00000936,-0.00000056,-0
 .00001010,-0.00002462,0.00001058,-0.00004581,-0.00000427,-0.00000305,0
 .00000326,-0.00000006,-0.00000087,0.00000867,0.00000877,-0.00000204,-0
 .00001139,0.00000947,-0.00000140,-0.00000279,-0.00000578,0.00000348,-0
 .00000725,-0.00000679,-0.00000585,0.00000381,-0.00003714,0.00000715,-0
 .00000276,0.00000507,0.00000325,0.00001208,0.00000953,-0.00002163,-0.0
 0000333,0.00003570,0.00001454,-0.00008147,-0.00002903,0.00003430,-0.00
 001038,-0.00004271,-0.00003319,0.00003297,-0.00000185,0.00000724,-0.00
 000070,-0.00016750,0.00019754,-0.00001790,-0.00002372,-0.00003687,-0.0
 0002512,-0.00005559,0.00001120,-0.00000596,-0.00002032,-0.00001165,-0.
 00003856,0.00002605,0.00002327,-0.00001970,-0.00000770,-0.00000390,-0.
 00003778,0.00000661,0.00004636,-0.00000117,-0.00012350,0.00010280,0.00
 007244,0.22378607,-0.00020987,-0.00002219,0.00010766,-0.10824213,-0.08
 377086,0.12623230,-0.00004639,0.00002564,0.00003081,0.00008907,0.00072
 365,-0.00002148,-0.00002150,-0.00010089,-0.00006612,-0.00104359,-0.000
 93666,0.00020994,0.00003580,-0.00004409,-0.00003602,-0.00021104,-0.001
 45709,0.00015410,0.00003145,-0.00000611,-0.00003290,0.00004373,-0.0000
 0247,-0.00000938,0.00017126,-0.00024165,-0.00019295,-0.00009645,-0.000
 10743,-0.00006041,-0.00005337,0.00001403,0.00000273,0.00266206,0.00100
 321,-0.00253418,-0.00001432,0.00000569,0.00001079,-0.00017482,0.000004
 29,0.00012097,-0.00000006,-0.00000173,0.00000714,-0.00000740,0.0000083
 2,0.00000207,-0.00001761,0.00004996,0.00004005,0.00001193,-0.00003295,
 0.00003855,-0.00003532,-0.00002606,0.00000356,0.00173671,-0.00480523,-
 0.00240814,0.00009836,0.00002195,-0.00013247,0.02650042,0.00667764,-0.
 03004292,0.00001422,-0.00001652,-0.00002191,0.00064104,0.00073843,-0.0
 0054943,-0.00002130,0.00005020,0.00004004,0.00027275,-0.00052304,-0.00
 026118,-0.00002212,0.00001824,0.00015586,-0.00005867,0.00043775,0.0002
 5877,0.00000003,0.00000729,0.00000223,-0.00000406,-0.00000735,0.000003
 03,0.00000064,0.00000332,0.00000299,-0.00001549,0.00000973,-0.00000413
 ,-0.00001136,0.00006394,0.00000764,-0.00003158,0.00001574,0.00004296,0
 .00000851,0.00011438,0.00002929,0.00008905,-0.00000551,0.00013139,0.00
 001680,-0.00001156,0.00001442,-0.00176893,-0.00097052,0.00153232,-0.00
 000270,-0.00000145,0.00000670,-0.00013144,-0.00001998,0.00017516,0.000
 00135,-0.00000264,-0.00000437,0.00000285,0.00000206,-0.00000507,-0.000
 00801,0.00000192,0.00000684,-0.00001383,0.00000194,0.00000346,0.000009
 24,0.00000090,0.00000415,0.00000569,-0.00001130,-0.00000191,0.00000081
 ,-0.00002057,-0.00000262,0.00001307,-0.00001474,-0.00000538,-0.0000382
 6,0.00003826,0.00001181,-0.00011335,-0.00000921,-0.00006851,0.00000652
 ,0.00006677,0.00001728,0.00002845,0.00001932,-0.00003457,-0.00000005,-
 0.00000106,0.00000542,0.00009886,-0.00026180,-0.00013280,0.00001796,0.
 00001584,0.00002059,-0.00002183,-0.00001827,0.00008479,0.00000713,0.00
 001468,-0.00005116,-0.00003622,-0.00001534,-0.00001800,-0.00012757,-0.
 00010658,0.00009105,0.00000660,-0.00007612,0.00001510,0.00016794,-0.00
 002364,0.00000325,0.07981035,0.08351752,0.00002432,-0.00001191,-0.0001
 7395,0.23835352,0.08743131,-0.27895170,-0.00002570,0.00000879,0.000004
 60,-0.00007939,0.00047423,0.00005641,0.00001502,-0.00001259,-0.0001063
 6,0.00039845,-0.00038613,0.00014225,0.00002429,-0.00001961,-0.00001685
 ,0.00036386,-0.00041000,-0.00126370,0.00001432,-0.00000538,-0.00001071
 ,0.00004394,-0.00000726,-0.00000515,0.00008659,-0.00004968,-0.00008058
 ,-0.00010048,0.00008315,0.00026053,-0.00004378,-0.00001713,-0.00005118
 ,-0.00339816,0.00392228,0.00236469,0.00000049,-0.00000724,-0.00001415,
 -0.00052525,0.00000192,0.00058771,-0.00000027,-0.00000063,0.00000147,-
 0.00001112,0.00000830,0.00000506,-0.00000485,0.00001714,0.00002097,0.0
 0002381,-0.00012611,0.00001890,0.00002254,-0.00000307,-0.00001754,0.00
 071186,-0.00347664,0.00247709,-0.00002532,0.00000481,0.00006037,0.0146
 6462,0.00511638,-0.01887798,-0.00000548,-0.00000923,-0.00000484,0.0013
 1525,0.00082012,0.00010434,-0.00007808,-0.00000169,0.00009379,-0.00023
 753,0.00058015,-0.00036337,-0.00003419,-0.00004303,0.00017595,-0.00005
 126,0.00010536,-0.00016389,0.00000019,0.00000514,-0.00000002,-0.000004
 35,-0.00000475,0.00000141,0.00000131,0.00000012,-0.00000126,-0.0000110
 5,0.00000797,0.00000175,-0.00000204,0.00004993,0.00001032,-0.00000528,
 -0.00001655,-0.00001437,-0.00000116,0.00004001,-0.00001573,-0.00003090
 ,-0.00001727,-0.00002071,0.00002007,-0.00000998,0.00002287,0.00043018,
 -0.00101585,0.00035050,0.00000200,-0.00000158,0.00000511,-0.00008011,-
 0.00000470,-0.00001790,0.00000047,-0.00000518,-0.00000265,0.00000388,0
 .00000385,-0.00000142,-0.00000448,0.00000024,0.00000245,-0.00000900,0.
 00000262,-0.00000040,0.00000414,-0.00000275,0.00000038,0.00000402,-0.0
 0000552,0.00000042,0.00001344,-0.00001175,0.00001014,0.00000673,0.0000
 1276,-0.00001910,-0.00001757,0.00002296,0.00000003,-0.00004589,0.00000
 197,0.00001678,-0.00001305,0.00001189,-0.00001881,0.00003555,0.0000464
 5,-0.00004079,0.00000413,0.00000094,0.00000400,-0.00006936,-0.00017785
 ,-0.00016451,0.00002431,-0.00000952,0.00001859,-0.00011070,0.00000615,
 -0.00011473,0.00000609,0.00000493,-0.00004110,-0.00003577,-0.00000413,
 -0.00002695,-0.00000747,-0.00001317,-0.00001372,-0.00000363,-0.0000198
 9,0.00003307,0.00009543,0.00004516,0.00016191,-0.25164212,-0.09292920,
 0.29360222\\-0.00000242,0.00000624,-0.00000006,-0.00000617,-0.00000320
 ,-0.00000326,0.00000604,-0.00000937,0.00000152,-0.00001280,-0.00000739
 ,-0.00000932,-0.00000047,0.00000454,0.00000265,-0.00000134,0.00000224,
 -0.00000127,0.00000728,0.00002037,-0.00000038,0.00000942,0.00000409,0.
 00000917,-0.00000377,-0.00000494,0.00000212,-0.00000066,0.00000770,-0.
 00000771,0.00000117,0.00000717,0.00000274,0.00000605,-0.00000002,0.000
 00221,-0.00001236,0.00000135,0.00000356,-0.00000175,-0.00000128,-0.000
 00067,-0.00000076,-0.00001381,0.00000243,0.00000071,-0.00000479,-0.000
 00087,0.00000130,-0.00000165,0.00000250,0.00000331,-0.00000510,0.00000
 222,-0.00000252,-0.00000212,0.00000057,-0.00000035,-0.00000004,-0.0000
 0082,0.00000838,-0.00000161,-0.00000247,-0.00000210,-0.00001233,0.0000
 0132,-0.00000196,-0.00001031,0.00000079,0.00000256,0.00001026,-0.00000
 121,-0.00000475,0.00000958,0.00000609,-0.00000021,0.00000723,0.0000002
 5,-0.00000420,0.00000012,-0.00000258,0.00000203,0.00000482,-0.00000429
 ,0.00001264,-0.00000377,0.00000290,-0.00000500,-0.00000281,-0.00000647
 ,0.00000174,-0.00000083,0.00000122,-0.00000316,0.00000302,-0.00000175,
 -0.00000002,0.00000119,-0.00000021,0.00000117,-0.00000288,0.00000110,-
 0.00000008,-0.00000026,0.00000139,0.00000063,0.00000082,-0.00000029,-0
 .00000032,-0.00000121,0.00000061,-0.00000094,-0.00000280,-0.00000122,-
 0.00000009,0.00000107,-0.00000227,0.00000003,0.00000035,-0.00000136,-0
 .00000387,-0.00000049,-0.00000396,0.00000154,-0.00000330,0.00000050,0.
 00000031,0.00000176,-0.00000252,0.00000038,0.00000209,0.00000034,0.000
 00027,-0.00000074,0.00000097,-0.00000112,-0.00000144,0.00000133,0.0000
 0148,0.00000131,-0.00000218,-0.00000022,-0.00000010,0.00000066,-0.0000
 0145,0.00000313,-0.00000119,0.00000199,-0.00000089,-0.00000089,-0.0000
 0007,0.00000077,-0.00000085,0.00000062,0.00000079,-0.00000078,-0.00000
 035,-0.00000059,0.00000028,0.00000004,-0.00000012,0.00000008,-0.000000
 14,0.00000003,-0.00000048,0.00000200,-0.00000005,0.00000023,0.00000320
 ,-0.00000112,0.00000088,-0.00000139,-0.00000031,0.00000085,-0.00000045
 ,-0.00000036,-0.00000062,-0.00000246,0.00000289,0.00000065,-0.00000009
 ,-0.00000134,0.00000310,-0.00000059,0.00000047,0.00000070,0.00000065,-
 0.00000144,0.00000077,0.00000345,-0.00000058,0.00000327\\\@
 The archive entry for this job was punched.


 EVERYTHING'S GOT A MORAL, IF ONLY YOU CAN FIND IT.

                                    -- LEWIS CARROL, ALICE IN WONDERLAND
 Job cpu time:       4 days 17 hours 25 minutes 32.6 seconds.
 Elapsed time:       0 days  4 hours 26 minutes 28.5 seconds.
 File lengths (MBytes):  RWF=   3834 Int=      0 D2E=      0 Chk=     81 Scr=      1
 Normal termination of Gaussian 16 at Tue Dec  5 19:35:30 2023.
