 Entering Gaussian System, Link 0=g16
 Input=/home/exlonk/in_progress/3935.inp
 Output=/home/exlonk/in_progress/3935.log
 Initial command:
 /opt/gaussian/g16-c01/g16/l1.exe "/lustre/tmp/slurm/2182610/Gau-1572099.inp" -scrdir="/lustre/tmp/slurm/2182610/"
 Default CPUs for threads: 4-6,9-11,15-17,19-22,28-30,34-36,40-46
 Default is to use a total of  26 processors:
                               26 via shared-memory
                                1 via Linda
 Entering Link 1 = /opt/gaussian/g16-c01/g16/l1.exe PID=   1572100.
  
 Copyright (c) 1988-2019, Gaussian, Inc.  All Rights Reserved.
  
 This is part of the Gaussian(R) 16 program.  It is based on
 the Gaussian(R) 09 system (copyright 2009, Gaussian, Inc.),
 the Gaussian(R) 03 system (copyright 2003, Gaussian, Inc.),
 the Gaussian(R) 98 system (copyright 1998, Gaussian, Inc.),
 the Gaussian(R) 94 system (copyright 1995, Gaussian, Inc.),
 the Gaussian 92(TM) system (copyright 1992, Gaussian, Inc.),
 the Gaussian 90(TM) system (copyright 1990, Gaussian, Inc.),
 the Gaussian 88(TM) system (copyright 1988, Gaussian, Inc.),
 the Gaussian 86(TM) system (copyright 1986, Carnegie Mellon
 University), and the Gaussian 82(TM) system (copyright 1983,
 Carnegie Mellon University). Gaussian is a federally registered
 trademark of Gaussian, Inc.
  
 This software contains proprietary and confidential information,
 including trade secrets, belonging to Gaussian, Inc.
  
 This software is provided under written license and may be
 used, copied, transmitted, or stored only in accord with that
 written license.
  
 The following legend is applicable only to US Government
 contracts under FAR:
  
                    RESTRICTED RIGHTS LEGEND
  
 Use, reproduction and disclosure by the US Government is
 subject to restrictions as set forth in subparagraphs (a)
 and (c) of the Commercial Computer Software - Restricted
 Rights clause in FAR 52.227-19.
  
 Gaussian, Inc.
 340 Quinnipiac St., Bldg. 40, Wallingford CT 06492
  
  
 ---------------------------------------------------------------
 Warning -- This program may not be used in any manner that
 competes with the business of Gaussian, Inc. or will provide
 assistance to any competitor of Gaussian, Inc.  The licensee
 of this program is prohibited from giving any competitor of
 Gaussian, Inc. access to this program.  By using this program,
 the user acknowledges that Gaussian, Inc. is engaged in the
 business of creating and licensing software in the field of
 computational chemistry and represents and warrants to the
 licensee that it is not a competitor of Gaussian, Inc. and that
 it will not use this program in any manner prohibited above.
 ---------------------------------------------------------------
  

 Cite this work as:
 Gaussian 16, Revision C.01,
 M. J. Frisch, G. W. Trucks, H. B. Schlegel, G. E. Scuseria, 
 M. A. Robb, J. R. Cheeseman, G. Scalmani, V. Barone, 
 G. A. Petersson, H. Nakatsuji, X. Li, M. Caricato, A. V. Marenich, 
 J. Bloino, B. G. Janesko, R. Gomperts, B. Mennucci, H. P. Hratchian, 
 J. V. Ortiz, A. F. Izmaylov, J. L. Sonnenberg, D. Williams-Young, 
 F. Ding, F. Lipparini, F. Egidi, J. Goings, B. Peng, A. Petrone, 
 T. Henderson, D. Ranasinghe, V. G. Zakrzewski, J. Gao, N. Rega, 
 G. Zheng, W. Liang, M. Hada, M. Ehara, K. Toyota, R. Fukuda, 
 J. Hasegawa, M. Ishida, T. Nakajima, Y. Honda, O. Kitao, H. Nakai, 
 T. Vreven, K. Throssell, J. A. Montgomery, Jr., J. E. Peralta, 
 F. Ogliaro, M. J. Bearpark, J. J. Heyd, E. N. Brothers, K. N. Kudin, 
 V. N. Staroverov, T. A. Keith, R. Kobayashi, J. Normand, 
 K. Raghavachari, A. P. Rendell, J. C. Burant, S. S. Iyengar, 
 J. Tomasi, M. Cossi, J. M. Millam, M. Klene, C. Adamo, R. Cammi, 
 J. W. Ochterski, R. L. Martin, K. Morokuma, O. Farkas, 
 J. B. Foresman, and D. J. Fox, Gaussian, Inc., Wallingford CT, 2019.
 
 ******************************************
 Gaussian 16:  EM64L-G16RevC.01  3-Jul-2019
                 4-Dec-2023 
 ******************************************
 %nproc=26
 Will use up to   26 processors via shared memory.
 %mem=16GB
 %chk=/home/exlonk/in_progress/3935.chk
 ------------------------------
 #p MN15/6-311++G(d,p) opt freq
 ------------------------------
 1/18=20,19=15,26=3,38=1/1,3;
 2/9=110,12=2,17=6,18=5,40=1/2;
 3/5=4,6=6,7=1111,11=2,25=1,30=1,71=1,74=-73/1,2,3;
 4//1;
 5/5=2,38=5/2;
 6/7=2,8=2,9=2,10=2,28=1/1;
 7//1,2,3,16;
 1/18=20,19=15,26=3/3(2);
 2/9=110/2;
 99//99;
 2/9=110/2;
 3/5=4,6=6,7=1111,11=2,25=1,30=1,71=1,74=-73/1,2,3;
 4/5=5,16=3,69=1/1;
 5/5=2,38=5/2;
 7//1,2,3,16;
 1/18=20,19=15,26=3/3(-5);
 2/9=110/2;
 6/7=2,8=2,9=2,10=2,19=2,28=1/1;
 99/9=1/99;
 Leave Link    1 at Mon Dec  4 20:48:43 2023, MaxMem=  2147483648 cpu:              10.6 elap:               0.4
 (Enter /opt/gaussian/g16-c01/g16/l101.exe)
 ---------------
 name file: 3935
 ---------------
 Symbolic Z-matrix:
 Charge =  0 Multiplicity = 1
 O                     2.9872    2.8924    0.3019 
 O                    -2.9872    2.8925   -0.3016 
 N                     1.8083   -1.0627    0.4227 
 N                    -1.8082   -1.0625   -0.4227 
 C                     0.3683   -1.2293    0.6721 
 C                    -0.3682   -1.2291   -0.6719 
 C                     0.156    -2.5178    1.4715 
 C                    -0.1558   -2.5177   -1.4715 
 C                     0.4085   -3.7761    0.6432 
 C                    -0.409    -3.7759   -0.6433 
 C                     2.1641    0.172     0.3862 
 C                    -2.164     0.1721   -0.386 
 C                     3.5623    0.5689    0.1481 
 C                    -3.5622    0.569    -0.148 
 C                     3.9132    1.9098    0.1164 
 C                    -3.9132    1.9098   -0.1164 
 C                     4.5097   -0.4259   -0.042 
 C                    -4.5097   -0.426     0.0419 
 C                     5.2429    2.2648   -0.1107 
 C                    -5.2429    2.2647    0.1107 
 C                     5.8395   -0.0709   -0.2692 
 C                    -5.8394   -0.0709    0.2689 
 C                     6.2061    1.2744   -0.3036 
 C                    -6.2061    1.2744    0.3033 
 H                    -0.0029   -0.4108    1.3055 
 H                     0.0031   -0.4105   -1.3053 
 H                    -0.8759   -2.5438    1.8444 
 H                     0.8096   -2.5283    2.3522 
 H                     0.8761   -2.5437   -1.8441 
 H                    -0.8092   -2.5279   -2.3523 
 H                     0.1575   -4.662     1.2376 
 H                     1.4753   -3.8509    0.3994 
 H                    -0.1584   -4.6619   -1.2377 
 H                    -1.4758   -3.8502   -0.3994 
 H                     1.4337    0.9894    0.5243 
 H                    -1.4335    0.9895   -0.5241 
 H                     4.2552   -1.4817   -0.0212 
 H                    -4.2551   -1.4817    0.021 
 H                     5.5429    3.3089   -0.1402 
 H                    -5.543     3.3089    0.1403 
 H                     6.5897   -0.8418   -0.4195 
 H                    -6.5897   -0.8419    0.419 
 H                     7.2414    1.5506   -0.4805 
 H                    -7.2415    1.5506    0.4801 
 H                     3.4264    3.7582    0.2438 
 H                    -3.4264    3.7583   -0.2434 
 
 ITRead=  0  0  0  0  0  0  0  0  0  0  0  0  0  0  0  0  0  0  0  0
 ITRead=  0  0  0  0  0  0  0  0  0  0  0  0  0  0  0  0  0  0  0  0
 ITRead=  0  0  0  0  0  0
 MicOpt= -1 -1 -1 -1 -1 -1 -1 -1 -1 -1 -1 -1 -1 -1 -1 -1 -1 -1 -1 -1
 MicOpt= -1 -1 -1 -1 -1 -1 -1 -1 -1 -1 -1 -1 -1 -1 -1 -1 -1 -1 -1 -1
 MicOpt= -1 -1 -1 -1 -1 -1
 NAtoms=     46 NQM=       46 NQMF=       0 NMMI=      0 NMMIF=      0
                NMic=       0 NMicF=      0.
                    Isotopes and Nuclear Properties:
 (Nuclear quadrupole moments (NQMom) in fm**2, nuclear magnetic moments (NMagM)
  in nuclear magnetons)

  Atom         1           2           3           4           5           6           7           8           9          10
 IAtWgt=          16          16          14          14          12          12          12          12          12          12
 AtmWgt=  15.9949146  15.9949146  14.0030740  14.0030740  12.0000000  12.0000000  12.0000000  12.0000000  12.0000000  12.0000000
 NucSpn=           0           0           2           2           0           0           0           0           0           0
 AtZEff=  -0.0000000  -0.0000000  -0.0000000  -0.0000000  -0.0000000  -0.0000000  -0.0000000  -0.0000000  -0.0000000  -0.0000000
 NQMom=    0.0000000   0.0000000   2.0440000   2.0440000   0.0000000   0.0000000   0.0000000   0.0000000   0.0000000   0.0000000
 NMagM=    0.0000000   0.0000000   0.4037610   0.4037610   0.0000000   0.0000000   0.0000000   0.0000000   0.0000000   0.0000000
 AtZNuc=   8.0000000   8.0000000   7.0000000   7.0000000   6.0000000   6.0000000   6.0000000   6.0000000   6.0000000   6.0000000

  Atom        11          12          13          14          15          16          17          18          19          20
 IAtWgt=          12          12          12          12          12          12          12          12          12          12
 AtmWgt=  12.0000000  12.0000000  12.0000000  12.0000000  12.0000000  12.0000000  12.0000000  12.0000000  12.0000000  12.0000000
 NucSpn=           0           0           0           0           0           0           0           0           0           0
 AtZEff=  -0.0000000  -0.0000000  -0.0000000  -0.0000000  -0.0000000  -0.0000000  -0.0000000  -0.0000000  -0.0000000  -0.0000000
 NQMom=    0.0000000   0.0000000   0.0000000   0.0000000   0.0000000   0.0000000   0.0000000   0.0000000   0.0000000   0.0000000
 NMagM=    0.0000000   0.0000000   0.0000000   0.0000000   0.0000000   0.0000000   0.0000000   0.0000000   0.0000000   0.0000000
 AtZNuc=   6.0000000   6.0000000   6.0000000   6.0000000   6.0000000   6.0000000   6.0000000   6.0000000   6.0000000   6.0000000

  Atom        21          22          23          24          25          26          27          28          29          30
 IAtWgt=          12          12          12          12           1           1           1           1           1           1
 AtmWgt=  12.0000000  12.0000000  12.0000000  12.0000000   1.0078250   1.0078250   1.0078250   1.0078250   1.0078250   1.0078250
 NucSpn=           0           0           0           0           1           1           1           1           1           1
 AtZEff=  -0.0000000  -0.0000000  -0.0000000  -0.0000000  -0.0000000  -0.0000000  -0.0000000  -0.0000000  -0.0000000  -0.0000000
 NQMom=    0.0000000   0.0000000   0.0000000   0.0000000   0.0000000   0.0000000   0.0000000   0.0000000   0.0000000   0.0000000
 NMagM=    0.0000000   0.0000000   0.0000000   0.0000000   2.7928460   2.7928460   2.7928460   2.7928460   2.7928460   2.7928460
 AtZNuc=   6.0000000   6.0000000   6.0000000   6.0000000   1.0000000   1.0000000   1.0000000   1.0000000   1.0000000   1.0000000

  Atom        31          32          33          34          35          36          37          38          39          40
 IAtWgt=           1           1           1           1           1           1           1           1           1           1
 AtmWgt=   1.0078250   1.0078250   1.0078250   1.0078250   1.0078250   1.0078250   1.0078250   1.0078250   1.0078250   1.0078250
 NucSpn=           1           1           1           1           1           1           1           1           1           1
 AtZEff=  -0.0000000  -0.0000000  -0.0000000  -0.0000000  -0.0000000  -0.0000000  -0.0000000  -0.0000000  -0.0000000  -0.0000000
 NQMom=    0.0000000   0.0000000   0.0000000   0.0000000   0.0000000   0.0000000   0.0000000   0.0000000   0.0000000   0.0000000
 NMagM=    2.7928460   2.7928460   2.7928460   2.7928460   2.7928460   2.7928460   2.7928460   2.7928460   2.7928460   2.7928460
 AtZNuc=   1.0000000   1.0000000   1.0000000   1.0000000   1.0000000   1.0000000   1.0000000   1.0000000   1.0000000   1.0000000

  Atom        41          42          43          44          45          46
 IAtWgt=           1           1           1           1           1           1
 AtmWgt=   1.0078250   1.0078250   1.0078250   1.0078250   1.0078250   1.0078250
 NucSpn=           1           1           1           1           1           1
 AtZEff=  -0.0000000  -0.0000000  -0.0000000  -0.0000000  -0.0000000  -0.0000000
 NQMom=    0.0000000   0.0000000   0.0000000   0.0000000   0.0000000   0.0000000
 NMagM=    2.7928460   2.7928460   2.7928460   2.7928460   2.7928460   2.7928460
 AtZNuc=   1.0000000   1.0000000   1.0000000   1.0000000   1.0000000   1.0000000
 Leave Link  101 at Mon Dec  4 20:48:43 2023, MaxMem=  2147483648 cpu:               7.7 elap:               0.3
 (Enter /opt/gaussian/g16-c01/g16/l103.exe)

 GradGradGradGradGradGradGradGradGradGradGradGradGradGradGradGradGradGrad
 Berny optimization.
 Initialization pass.
                           ----------------------------
                           !    Initial Parameters    !
                           ! (Angstroms and Degrees)  !
 --------------------------                            --------------------------
 ! Name  Definition              Value          Derivative Info.                !
 --------------------------------------------------------------------------------
 ! R1    R(1,15)                 1.3629         estimate D2E/DX2                !
 ! R2    R(1,45)                 0.9726         estimate D2E/DX2                !
 ! R3    R(2,16)                 1.3629         estimate D2E/DX2                !
 ! R4    R(2,46)                 0.9726         estimate D2E/DX2                !
 ! R5    R(3,5)                  1.4709         estimate D2E/DX2                !
 ! R6    R(3,11)                 1.2855         estimate D2E/DX2                !
 ! R7    R(4,6)                  1.4709         estimate D2E/DX2                !
 ! R8    R(4,12)                 1.2854         estimate D2E/DX2                !
 ! R9    R(5,6)                  1.5326         estimate D2E/DX2                !
 ! R10   R(5,7)                  1.5311         estimate D2E/DX2                !
 ! R11   R(5,25)                 1.0995         estimate D2E/DX2                !
 ! R12   R(6,8)                  1.5313         estimate D2E/DX2                !
 ! R13   R(6,26)                 1.0996         estimate D2E/DX2                !
 ! R14   R(7,9)                  1.5275         estimate D2E/DX2                !
 ! R15   R(7,27)                 1.0975         estimate D2E/DX2                !
 ! R16   R(7,28)                 1.0968         estimate D2E/DX2                !
 ! R17   R(8,10)                 1.5274         estimate D2E/DX2                !
 ! R18   R(8,29)                 1.0974         estimate D2E/DX2                !
 ! R19   R(8,30)                 1.0967         estimate D2E/DX2                !
 ! R20   R(9,10)                 1.5243         estimate D2E/DX2                !
 ! R21   R(9,31)                 1.096          estimate D2E/DX2                !
 ! R22   R(9,32)                 1.0969         estimate D2E/DX2                !
 ! R23   R(10,33)                1.096          estimate D2E/DX2                !
 ! R24   R(10,34)                1.0968         estimate D2E/DX2                !
 ! R25   R(11,13)                1.4728         estimate D2E/DX2                !
 ! R26   R(11,35)                1.1049         estimate D2E/DX2                !
 ! R27   R(12,14)                1.4728         estimate D2E/DX2                !
 ! R28   R(12,36)                1.1049         estimate D2E/DX2                !
 ! R29   R(13,15)                1.3864         estimate D2E/DX2                !
 ! R30   R(13,17)                1.3868         estimate D2E/DX2                !
 ! R31   R(14,16)                1.3863         estimate D2E/DX2                !
 ! R32   R(14,18)                1.387          estimate D2E/DX2                !
 ! R33   R(15,19)                1.3949         estimate D2E/DX2                !
 ! R34   R(16,20)                1.3949         estimate D2E/DX2                !
 ! R35   R(17,21)                1.395          estimate D2E/DX2                !
 ! R36   R(17,37)                1.0862         estimate D2E/DX2                !
 ! R37   R(18,22)                1.3949         estimate D2E/DX2                !
 ! R38   R(18,38)                1.0862         estimate D2E/DX2                !
 ! R39   R(19,23)                1.3949         estimate D2E/DX2                !
 ! R40   R(19,39)                1.0867         estimate D2E/DX2                !
 ! R41   R(20,24)                1.3948         estimate D2E/DX2                !
 ! R42   R(20,40)                1.0869         estimate D2E/DX2                !
 ! R43   R(21,23)                1.3948         estimate D2E/DX2                !
 ! R44   R(21,41)                1.0861         estimate D2E/DX2                !
 ! R45   R(22,24)                1.3948         estimate D2E/DX2                !
 ! R46   R(22,42)                1.0862         estimate D2E/DX2                !
 ! R47   R(23,43)                1.086          estimate D2E/DX2                !
 ! R48   R(24,44)                1.0861         estimate D2E/DX2                !
 ! A1    A(15,1,45)            109.079          estimate D2E/DX2                !
 ! A2    A(16,2,46)            109.0823         estimate D2E/DX2                !
 ! A3    A(5,3,11)             112.6176         estimate D2E/DX2                !
 ! A4    A(6,4,12)             112.6206         estimate D2E/DX2                !
 ! A5    A(3,5,6)              108.7695         estimate D2E/DX2                !
 ! A6    A(3,5,7)              108.6378         estimate D2E/DX2                !
 ! A7    A(3,5,25)             110.113          estimate D2E/DX2                !
 ! A8    A(6,5,7)              113.0377         estimate D2E/DX2                !
 ! A9    A(6,5,25)             110.0509         estimate D2E/DX2                !
 ! A10   A(7,5,25)             106.1934         estimate D2E/DX2                !
 ! A11   A(4,6,5)              108.7789         estimate D2E/DX2                !
 ! A12   A(4,6,8)              108.637          estimate D2E/DX2                !
 ! A13   A(4,6,26)             110.1114         estimate D2E/DX2                !
 ! A14   A(5,6,8)              113.026          estimate D2E/DX2                !
 ! A15   A(5,6,26)             110.058          estimate D2E/DX2                !
 ! A16   A(8,6,26)             106.1904         estimate D2E/DX2                !
 ! A17   A(5,7,9)              112.7806         estimate D2E/DX2                !
 ! A18   A(5,7,27)             109.1289         estimate D2E/DX2                !
 ! A19   A(5,7,28)             110.1614         estimate D2E/DX2                !
 ! A20   A(9,7,27)             108.6722         estimate D2E/DX2                !
 ! A21   A(9,7,28)             109.2104         estimate D2E/DX2                !
 ! A22   A(27,7,28)            106.6928         estimate D2E/DX2                !
 ! A23   A(6,8,10)             112.7708         estimate D2E/DX2                !
 ! A24   A(6,8,29)             109.1259         estimate D2E/DX2                !
 ! A25   A(6,8,30)             110.1539         estimate D2E/DX2                !
 ! A26   A(10,8,29)            108.6901         estimate D2E/DX2                !
 ! A27   A(10,8,30)            109.2102         estimate D2E/DX2                !
 ! A28   A(29,8,30)            106.6965         estimate D2E/DX2                !
 ! A29   A(7,9,10)             111.6488         estimate D2E/DX2                !
 ! A30   A(7,9,31)             109.5073         estimate D2E/DX2                !
 ! A31   A(7,9,32)             109.7237         estimate D2E/DX2                !
 ! A32   A(10,9,31)            109.5744         estimate D2E/DX2                !
 ! A33   A(10,9,32)            109.5139         estimate D2E/DX2                !
 ! A34   A(31,9,32)            106.7486         estimate D2E/DX2                !
 ! A35   A(8,10,9)             111.6439         estimate D2E/DX2                !
 ! A36   A(8,10,33)            109.5086         estimate D2E/DX2                !
 ! A37   A(8,10,34)            109.7304         estimate D2E/DX2                !
 ! A38   A(9,10,33)            109.5736         estimate D2E/DX2                !
 ! A39   A(9,10,34)            109.5084         estimate D2E/DX2                !
 ! A40   A(33,10,34)           106.7523         estimate D2E/DX2                !
 ! A41   A(3,11,13)            121.7489         estimate D2E/DX2                !
 ! A42   A(3,11,35)            121.6066         estimate D2E/DX2                !
 ! A43   A(13,11,35)           116.6428         estimate D2E/DX2                !
 ! A44   A(4,12,14)            121.752          estimate D2E/DX2                !
 ! A45   A(4,12,36)            121.6001         estimate D2E/DX2                !
 ! A46   A(14,12,36)           116.6464         estimate D2E/DX2                !
 ! A47   A(11,13,15)           120.3054         estimate D2E/DX2                !
 ! A48   A(11,13,17)           118.5145         estimate D2E/DX2                !
 ! A49   A(15,13,17)           121.18           estimate D2E/DX2                !
 ! A50   A(12,14,16)           120.31           estimate D2E/DX2                !
 ! A51   A(12,14,18)           118.5105         estimate D2E/DX2                !
 ! A52   A(16,14,18)           121.1795         estimate D2E/DX2                !
 ! A53   A(1,15,13)            121.4822         estimate D2E/DX2                !
 ! A54   A(1,15,19)            119.1023         estimate D2E/DX2                !
 ! A55   A(13,15,19)           119.4155         estimate D2E/DX2                !
 ! A56   A(2,16,14)            121.4822         estimate D2E/DX2                !
 ! A57   A(2,16,20)            119.102          estimate D2E/DX2                !
 ! A58   A(14,16,20)           119.4158         estimate D2E/DX2                !
 ! A59   A(13,17,21)           119.4057         estimate D2E/DX2                !
 ! A60   A(13,17,37)           122.3122         estimate D2E/DX2                !
 ! A61   A(21,17,37)           118.2821         estimate D2E/DX2                !
 ! A62   A(14,18,22)           119.3964         estimate D2E/DX2                !
 ! A63   A(14,18,38)           122.3087         estimate D2E/DX2                !
 ! A64   A(22,18,38)           118.2948         estimate D2E/DX2                !
 ! A65   A(15,19,23)           120.0032         estimate D2E/DX2                !
 ! A66   A(15,19,39)           120.803          estimate D2E/DX2                !
 ! A67   A(23,19,39)           119.1939         estimate D2E/DX2                !
 ! A68   A(16,20,24)           120.0087         estimate D2E/DX2                !
 ! A69   A(16,20,40)           120.8034         estimate D2E/DX2                !
 ! A70   A(24,20,40)           119.1879         estimate D2E/DX2                !
 ! A71   A(17,21,23)           120.0016         estimate D2E/DX2                !
 ! A72   A(17,21,41)           120.0228         estimate D2E/DX2                !
 ! A73   A(23,21,41)           119.9757         estimate D2E/DX2                !
 ! A74   A(18,22,24)           120.011          estimate D2E/DX2                !
 ! A75   A(18,22,42)           120.0161         estimate D2E/DX2                !
 ! A76   A(24,22,42)           119.9729         estimate D2E/DX2                !
 ! A77   A(19,23,21)           119.994          estimate D2E/DX2                !
 ! A78   A(19,23,43)           120.0137         estimate D2E/DX2                !
 ! A79   A(21,23,43)           119.9923         estimate D2E/DX2                !
 ! A80   A(20,24,22)           119.9885         estimate D2E/DX2                !
 ! A81   A(20,24,44)           120.0163         estimate D2E/DX2                !
 ! A82   A(22,24,44)           119.9952         estimate D2E/DX2                !
 ! D1    D(45,1,15,13)        -179.9927         estimate D2E/DX2                !
 ! D2    D(45,1,15,19)          -0.0163         estimate D2E/DX2                !
 ! D3    D(46,2,16,14)        -179.9775         estimate D2E/DX2                !
 ! D4    D(46,2,16,20)          -0.0213         estimate D2E/DX2                !
 ! D5    D(11,3,5,6)            88.9672         estimate D2E/DX2                !
 ! D6    D(11,3,5,7)          -147.6104         estimate D2E/DX2                !
 ! D7    D(11,3,5,25)          -31.7017         estimate D2E/DX2                !
 ! D8    D(5,3,11,13)         -179.96           estimate D2E/DX2                !
 ! D9    D(5,3,11,35)           -0.4428         estimate D2E/DX2                !
 ! D10   D(12,4,6,5)            88.9701         estimate D2E/DX2                !
 ! D11   D(12,4,6,8)          -147.6164         estimate D2E/DX2                !
 ! D12   D(12,4,6,26)          -31.7125         estimate D2E/DX2                !
 ! D13   D(6,4,12,14)         -179.9579         estimate D2E/DX2                !
 ! D14   D(6,4,12,36)           -0.4265         estimate D2E/DX2                !
 ! D15   D(3,5,6,4)           -166.2585         estimate D2E/DX2                !
 ! D16   D(3,5,6,8)             72.993          estimate D2E/DX2                !
 ! D17   D(3,5,6,26)           -45.543          estimate D2E/DX2                !
 ! D18   D(7,5,6,4)             72.991          estimate D2E/DX2                !
 ! D19   D(7,5,6,8)            -47.7574         estimate D2E/DX2                !
 ! D20   D(7,5,6,26)          -166.2934         estimate D2E/DX2                !
 ! D21   D(25,5,6,4)           -45.5513         estimate D2E/DX2                !
 ! D22   D(25,5,6,8)          -166.2998         estimate D2E/DX2                !
 ! D23   D(25,5,6,26)           75.1642         estimate D2E/DX2                !
 ! D24   D(3,5,7,9)            -71.0147         estimate D2E/DX2                !
 ! D25   D(3,5,7,27)           168.1083         estimate D2E/DX2                !
 ! D26   D(3,5,7,28)            51.2862         estimate D2E/DX2                !
 ! D27   D(6,5,7,9)             49.8105         estimate D2E/DX2                !
 ! D28   D(6,5,7,27)           -71.0664         estimate D2E/DX2                !
 ! D29   D(6,5,7,28)           172.1115         estimate D2E/DX2                !
 ! D30   D(25,5,7,9)           170.5712         estimate D2E/DX2                !
 ! D31   D(25,5,7,27)           49.6943         estimate D2E/DX2                !
 ! D32   D(25,5,7,28)          -67.1278         estimate D2E/DX2                !
 ! D33   D(4,6,8,10)           -70.9939         estimate D2E/DX2                !
 ! D34   D(4,6,8,29)           168.1149         estimate D2E/DX2                !
 ! D35   D(4,6,8,30)            51.2944         estimate D2E/DX2                !
 ! D36   D(5,6,8,10)            49.8352         estimate D2E/DX2                !
 ! D37   D(5,6,8,29)           -71.0559         estimate D2E/DX2                !
 ! D38   D(5,6,8,30)           172.1236         estimate D2E/DX2                !
 ! D39   D(26,6,8,10)          170.5958         estimate D2E/DX2                !
 ! D40   D(26,6,8,29)           49.7047         estimate D2E/DX2                !
 ! D41   D(26,6,8,30)          -67.1158         estimate D2E/DX2                !
 ! D42   D(5,7,9,10)           -53.5406         estimate D2E/DX2                !
 ! D43   D(5,7,9,31)          -175.0755         estimate D2E/DX2                !
 ! D44   D(5,7,9,32)            68.0662         estimate D2E/DX2                !
 ! D45   D(27,7,9,10)           67.5965         estimate D2E/DX2                !
 ! D46   D(27,7,9,31)          -53.9384         estimate D2E/DX2                !
 ! D47   D(27,7,9,32)         -170.7967         estimate D2E/DX2                !
 ! D48   D(28,7,9,10)         -176.3742         estimate D2E/DX2                !
 ! D49   D(28,7,9,31)           62.0909         estimate D2E/DX2                !
 ! D50   D(28,7,9,32)          -54.7674         estimate D2E/DX2                !
 ! D51   D(6,8,10,9)           -53.5686         estimate D2E/DX2                !
 ! D52   D(6,8,10,33)         -175.1002         estimate D2E/DX2                !
 ! D53   D(6,8,10,34)           68.0324         estimate D2E/DX2                !
 ! D54   D(29,8,10,9)           67.5709         estimate D2E/DX2                !
 ! D55   D(29,8,10,33)         -53.9607         estimate D2E/DX2                !
 ! D56   D(29,8,10,34)        -170.8281         estimate D2E/DX2                !
 ! D57   D(30,8,10,9)         -176.3857         estimate D2E/DX2                !
 ! D58   D(30,8,10,33)          62.0827         estimate D2E/DX2                !
 ! D59   D(30,8,10,34)         -54.7847         estimate D2E/DX2                !
 ! D60   D(7,9,10,8)            55.1872         estimate D2E/DX2                !
 ! D61   D(7,9,10,33)          176.6811         estimate D2E/DX2                !
 ! D62   D(7,9,10,34)          -66.5421         estimate D2E/DX2                !
 ! D63   D(31,9,10,8)          176.6833         estimate D2E/DX2                !
 ! D64   D(31,9,10,33)         -61.8227         estimate D2E/DX2                !
 ! D65   D(31,9,10,34)          54.954          estimate D2E/DX2                !
 ! D66   D(32,9,10,8)          -66.5408         estimate D2E/DX2                !
 ! D67   D(32,9,10,33)          54.9531         estimate D2E/DX2                !
 ! D68   D(32,9,10,34)         171.7299         estimate D2E/DX2                !
 ! D69   D(3,11,13,15)        -179.9208         estimate D2E/DX2                !
 ! D70   D(3,11,13,17)           0.0886         estimate D2E/DX2                !
 ! D71   D(35,11,13,15)          0.5392         estimate D2E/DX2                !
 ! D72   D(35,11,13,17)       -179.4513         estimate D2E/DX2                !
 ! D73   D(4,12,14,16)        -179.9049         estimate D2E/DX2                !
 ! D74   D(4,12,14,18)           0.093          estimate D2E/DX2                !
 ! D75   D(36,12,14,16)          0.5417         estimate D2E/DX2                !
 ! D76   D(36,12,14,18)       -179.4604         estimate D2E/DX2                !
 ! D77   D(11,13,15,1)          -0.0164         estimate D2E/DX2                !
 ! D78   D(11,13,15,19)       -179.9927         estimate D2E/DX2                !
 ! D79   D(17,13,15,1)         179.9739         estimate D2E/DX2                !
 ! D80   D(17,13,15,19)         -0.0024         estimate D2E/DX2                !
 ! D81   D(11,13,17,21)        179.989          estimate D2E/DX2                !
 ! D82   D(11,13,17,37)          0.0092         estimate D2E/DX2                !
 ! D83   D(15,13,17,21)         -0.0014         estimate D2E/DX2                !
 ! D84   D(15,13,17,37)       -179.9812         estimate D2E/DX2                !
 ! D85   D(12,14,16,2)          -0.0325         estimate D2E/DX2                !
 ! D86   D(12,14,16,20)       -179.9885         estimate D2E/DX2                !
 ! D87   D(18,14,16,2)         179.9697         estimate D2E/DX2                !
 ! D88   D(18,14,16,20)          0.0137         estimate D2E/DX2                !
 ! D89   D(12,14,18,22)        179.9929         estimate D2E/DX2                !
 ! D90   D(12,14,18,38)          0.0106         estimate D2E/DX2                !
 ! D91   D(16,14,18,22)         -0.0093         estimate D2E/DX2                !
 ! D92   D(16,14,18,38)       -179.9916         estimate D2E/DX2                !
 ! D93   D(1,15,19,23)        -179.9695         estimate D2E/DX2                !
 ! D94   D(1,15,19,39)           0.0181         estimate D2E/DX2                !
 ! D95   D(13,15,19,23)          0.0073         estimate D2E/DX2                !
 ! D96   D(13,15,19,39)        179.995          estimate D2E/DX2                !
 ! D97   D(2,16,20,24)        -179.9691         estimate D2E/DX2                !
 ! D98   D(2,16,20,40)           0.0272         estimate D2E/DX2                !
 ! D99   D(14,16,20,24)         -0.0121         estimate D2E/DX2                !
 ! D100  D(14,16,20,40)        179.9843         estimate D2E/DX2                !
 ! D101  D(13,17,21,23)          0.0003         estimate D2E/DX2                !
 ! D102  D(13,17,21,41)       -179.991          estimate D2E/DX2                !
 ! D103  D(37,17,21,23)        179.981          estimate D2E/DX2                !
 ! D104  D(37,17,21,41)         -0.0104         estimate D2E/DX2                !
 ! D105  D(14,18,22,24)          0.0032         estimate D2E/DX2                !
 ! D106  D(14,18,22,42)       -179.9937         estimate D2E/DX2                !
 ! D107  D(38,18,22,24)        179.9862         estimate D2E/DX2                !
 ! D108  D(38,18,22,42)         -0.0107         estimate D2E/DX2                !
 ! D109  D(15,19,23,21)         -0.0084         estimate D2E/DX2                !
 ! D110  D(15,19,23,43)        179.9954         estimate D2E/DX2                !
 ! D111  D(39,19,23,21)       -179.9963         estimate D2E/DX2                !
 ! D112  D(39,19,23,43)          0.0076         estimate D2E/DX2                !
 ! D113  D(16,20,24,22)          0.0062         estimate D2E/DX2                !
 ! D114  D(16,20,24,44)       -179.9976         estimate D2E/DX2                !
 ! D115  D(40,20,24,22)       -179.9902         estimate D2E/DX2                !
 ! D116  D(40,20,24,44)          0.006          estimate D2E/DX2                !
 ! D117  D(17,21,23,19)          0.0046         estimate D2E/DX2                !
 ! D118  D(17,21,23,43)       -179.9993         estimate D2E/DX2                !
 ! D119  D(41,21,23,19)        179.9959         estimate D2E/DX2                !
 ! D120  D(41,21,23,43)         -0.0079         estimate D2E/DX2                !
 ! D121  D(18,22,24,20)         -0.0018         estimate D2E/DX2                !
 ! D122  D(18,22,24,44)       -179.9979         estimate D2E/DX2                !
 ! D123  D(42,22,24,20)        179.9952         estimate D2E/DX2                !
 ! D124  D(42,22,24,44)         -0.001          estimate D2E/DX2                !
 --------------------------------------------------------------------------------
 Trust Radius=3.00D-01 FncErr=1.00D-07 GrdErr=1.00D-06 EigMax=2.50D+02 EigMin=1.00D-04
 Number of steps in this run=    264 maximum allowed number of steps=    276.
 GradGradGradGradGradGradGradGradGradGradGradGradGradGradGradGradGradGrad

 Leave Link  103 at Mon Dec  4 20:48:43 2023, MaxMem=  2147483648 cpu:               0.9 elap:               0.1
 (Enter /opt/gaussian/g16-c01/g16/l202.exe)
                          Input orientation:                          
 ---------------------------------------------------------------------
 Center     Atomic      Atomic             Coordinates (Angstroms)
 Number     Number       Type             X           Y           Z
 ---------------------------------------------------------------------
      1          8           0        2.987200    2.892400    0.301900
      2          8           0       -2.987200    2.892500   -0.301600
      3          7           0        1.808300   -1.062700    0.422700
      4          7           0       -1.808200   -1.062500   -0.422700
      5          6           0        0.368300   -1.229300    0.672100
      6          6           0       -0.368200   -1.229100   -0.671900
      7          6           0        0.156000   -2.517800    1.471500
      8          6           0       -0.155800   -2.517700   -1.471500
      9          6           0        0.408500   -3.776100    0.643200
     10          6           0       -0.409000   -3.775900   -0.643300
     11          6           0        2.164100    0.172000    0.386200
     12          6           0       -2.164000    0.172100   -0.386000
     13          6           0        3.562300    0.568900    0.148100
     14          6           0       -3.562200    0.569000   -0.148000
     15          6           0        3.913200    1.909800    0.116400
     16          6           0       -3.913200    1.909800   -0.116400
     17          6           0        4.509700   -0.425900   -0.042000
     18          6           0       -4.509700   -0.426000    0.041900
     19          6           0        5.242900    2.264800   -0.110700
     20          6           0       -5.242900    2.264700    0.110700
     21          6           0        5.839500   -0.070900   -0.269200
     22          6           0       -5.839400   -0.070900    0.268900
     23          6           0        6.206100    1.274400   -0.303600
     24          6           0       -6.206100    1.274400    0.303300
     25          1           0       -0.002900   -0.410800    1.305500
     26          1           0        0.003100   -0.410500   -1.305300
     27          1           0       -0.875900   -2.543800    1.844400
     28          1           0        0.809600   -2.528300    2.352200
     29          1           0        0.876100   -2.543700   -1.844100
     30          1           0       -0.809200   -2.527900   -2.352300
     31          1           0        0.157500   -4.662000    1.237600
     32          1           0        1.475300   -3.850900    0.399400
     33          1           0       -0.158400   -4.661900   -1.237700
     34          1           0       -1.475800   -3.850200   -0.399400
     35          1           0        1.433700    0.989400    0.524300
     36          1           0       -1.433500    0.989500   -0.524100
     37          1           0        4.255200   -1.481700   -0.021200
     38          1           0       -4.255100   -1.481700    0.021000
     39          1           0        5.542900    3.308900   -0.140200
     40          1           0       -5.543000    3.308900    0.140300
     41          1           0        6.589700   -0.841800   -0.419500
     42          1           0       -6.589700   -0.841900    0.419000
     43          1           0        7.241400    1.550600   -0.480500
     44          1           0       -7.241500    1.550600    0.480100
     45          1           0        3.426400    3.758200    0.243800
     46          1           0       -3.426400    3.758300   -0.243400
 ---------------------------------------------------------------------
                    Distance matrix (angstroms):
                    1          2          3          4          5
     1  O    0.000000
     2  O    6.004804   0.000000
     3  N    4.128827   6.258198   0.000000
     4  N    6.257966   4.128769   3.713997   0.000000
     5  C    4.897356   5.403398   1.470903   2.442040   0.000000
     6  C    5.403125   4.897333   2.441923   1.470869   1.532569
     7  C    6.217228   6.503456   2.438728   3.092567   1.531125
     8  C    6.503274   6.217375   3.092363   2.438855   2.555323
     9  C    7.157868   7.542788   3.061144   3.662448   2.547281
    10  C    7.542798   7.157614   3.662544   3.060876   2.969789
    11  C    2.843444   5.866011   1.285461   4.237626   2.295709
    12  C    5.865842   2.843476   4.237676   1.285371   3.081565
    13  C    2.398551   6.964000   2.411232   5.641768   3.702666
    14  C    6.963852   2.398514   5.641845   2.411176   4.399463
    15  C    1.362861   6.982546   3.655158   6.469901   4.767501
    16  C    6.982550   1.362892   6.470081   3.655053   5.367208
    17  C    3.667068   8.202602   2.814076   6.361293   4.278619
    18  C    8.202615   3.667212   6.361409   2.814087   4.983706
    19  C    2.377457   8.256210   4.811782   7.802966   6.048408
    20  C    8.256216   2.377458   7.803099   4.811646   6.633911
    21  C    4.152459   9.310930   4.208677   7.713245   5.671152
    22  C    9.310806   4.152379   7.713277   4.208581   6.327717
    23  C    3.653200   9.334614   5.032911   8.348910   6.426540
    24  C    9.334596   3.653145   8.349066   5.032862   7.044662
    25  H    4.567170   4.732928   2.117724   2.582730   1.099512
    26  H    4.732557   4.567178   2.582653   2.117757   2.171155
    27  H    6.845080   6.214198   3.379322   2.864119   2.156439
    28  H    6.191095   7.130457   2.620755   4.086749   2.169074
    29  H    6.213955   6.845193   2.863693   3.379319   2.883881
    30  H    7.130013   6.191106   4.086409   2.620831   3.495692
    31  H    8.121065   8.326388   4.042792   4.424587   3.485349
    32  H    6.911399   8.116573   2.808112   4.385475   2.858776
    33  H    8.326621   8.120797   4.424825   4.042492   3.963268
    34  H    8.116209   6.910709   4.385353   2.807544   3.379043
    35  H    2.466624   4.883468   2.088483   3.951837   2.465675
    36  H    4.883226   2.466759   3.951863   2.088393   3.098459
    37  H    4.565629   8.465495   2.521890   6.091121   3.956307
    38  H    8.465374   4.565662   6.091120   2.521888   4.675838
    39  H    2.626885   8.541782   5.777108   8.557314   6.930482
    40  H    8.541891   2.626933   8.557584   5.777096   7.471381
    41  H    5.238576  10.279879   4.860029   8.400800   6.328315
    42  H   10.279870   5.238608   8.400903   4.860027   6.973371
    43  H    4.528884  10.317798   6.096202   9.419495   7.503055
    44  H   10.317872   4.528887   9.419741   6.096236   8.103935
    45  H    0.972565   6.494703   5.088352   7.147336   5.866053
    46  H    6.494721   0.972571   7.147574   5.088303   6.333565
                    6          7          8          9         10
     6  C    0.000000
     7  C    2.555327   0.000000
     8  C    1.531327   2.959471   0.000000
     9  C    2.969842   1.527467   2.524671   0.000000
    10  C    2.547287   2.524761   1.527446   1.524267   0.000000
    11  C    3.081428   3.527799   4.008425   4.328472   4.823549
    12  C    2.295648   4.008524   3.527917   4.823411   4.328156
    13  C    4.399322   4.783512   5.096516   5.391716   5.939261
    14  C    3.702603   5.096678   4.783611   5.939053   5.391303
    15  C    5.366982   5.962926   6.219401   6.699992   7.182321
    16  C    4.767421   6.219603   5.962978   7.182168   6.699569
    17  C    4.983554   5.061762   5.309048   5.339773   5.981444
    18  C    4.278610   5.309250   5.061821   5.981089   5.339201
    19  C    6.633757   7.159132   7.339622   7.773819   8.289614
    20  C    6.048289   7.339769   7.159141   8.289339   7.773285
    21  C    6.327648   6.428027   6.586044   6.637525   7.273976
    22  C    5.671028   6.586227   6.427996   7.273573   6.636895
    23  C    7.044471   7.357681   7.497852   7.747009   8.329494
    24  C    6.426477   7.498119   7.357722   8.329227   7.746480
    25  H    2.170984   2.119494   3.489145   3.454437   3.909813
    26  H    1.099620   3.489228   2.119708   3.910021   3.454560
    27  H    2.884088   1.097519   3.393290   2.147354   2.815087
    28  H    3.495757   1.096784   3.943703   2.153733   3.466196
    29  H    2.156504   3.392995   1.097417   2.814981   2.147491
    30  H    2.169126   3.943749   1.096743   3.466095   2.153682
    31  H    3.963250   2.156920   3.469208   1.095961   2.154966
    32  H    3.379351   2.160349   2.817477   1.096857   2.154863
    33  H    3.485436   3.469262   2.156910   2.154948   1.095951
    34  H    2.858531   2.817504   2.160406   2.154784   1.096845
    35  H    3.098303   3.850994   4.336990   4.875978   5.240889
    36  H    2.465542   4.337059   3.851043   5.240849   4.875741
    37  H    4.675793   4.483871   4.757477   4.528002   5.234990
    38  H    3.956249   4.757652   4.483873   5.234555   4.527376
    39  H    7.471094   8.097327   8.258136   8.784817   9.266748
    40  H    6.930488   8.258397   8.097474   9.266633   8.784439
    41  H    6.973240   6.912116   7.029731   6.924354   7.592156
    42  H    6.328274   7.029998   6.912117   7.591745   6.923719
    43  H    8.103664   8.400302   8.500101   8.736416   9.323450
    44  H    7.503072   8.500456   8.400414   9.323242   8.735942
    45  H    6.333297   7.182683   7.427068   8.126064   8.500582
    46  H    5.866034   7.427241   7.182843   8.500571   8.125810
                   11         12         13         14         15
    11  C    0.000000
    12  C    4.396447   0.000000
    13  C    1.472815   5.764827   0.000000
    14  C    5.764850   1.472799   7.130650   0.000000
    15  C    2.480341   6.340691   1.386416   7.599293   0.000000
    16  C    6.340830   2.480320   7.599413   1.386342   7.829862
    17  C    2.458186   6.709263   1.386842   8.133673   2.415864
    18  C    6.709378   2.458278   8.133775   1.387027   8.741096
    19  C    3.755760   7.701776   2.401556   8.966990   1.394884
    20  C    7.701879   3.755704   8.967089   2.401474   9.162977
    21  C    3.741272   8.008040   2.401900   9.424231   2.789712
    22  C    8.008044   3.741191   9.424219   2.401857   9.952871
    23  C    4.246042   8.442774   2.773345   9.794972   2.416097
    24  C    8.442891   4.246030   9.795073   2.773350  10.140951
    25  H    2.425007   2.805583   3.874279   3.967529   4.704783
    26  H    2.805423   2.425048   3.967304   3.874291   4.763812
    27  H    4.329378   3.742993   5.680137   4.568959   6.764319
    28  H    3.604365   4.861296   4.693406   5.912436   5.858999
    29  H    3.742754   4.329415   4.568677   5.680155   5.735957
    30  H    4.861004   3.604417   5.912037   4.693478   6.934603
    31  H    5.302724   5.603032   6.335771   6.566538   7.651858
    32  H    4.081463   5.481413   4.894216   6.723955   6.261718
    33  H    5.603360   5.302394   6.566987   6.335268   7.848487
    34  H    5.481253   4.080772   6.723887   4.893424   7.904744
    35  H    1.104852   3.800009   2.202109   5.058433   2.676086
    36  H    3.799958   1.104918   5.058337   2.202189   5.463002
    37  H    2.696924   6.638845   2.171113   8.082895   3.411476
    38  H    6.638842   2.696925   8.082874   2.171184   8.844914
    39  H    4.640423   8.324436   3.393154   9.508415   2.163157
    40  H    8.324662   4.640490   9.508635   3.393190   9.559172
    41  H    4.611169   8.812286   3.387830  10.253055   3.875841
    42  H    8.812382   4.611187  10.253138   3.387903  10.861599
    43  H    5.332043   9.506353   3.859359  10.853196   3.400328
    44  H    9.506559   5.332110  10.853389   3.859443  11.166407
    45  H    3.804538   6.671532   3.193628   7.691881   1.915669
    46  H    6.671704   3.804579   7.692040   3.193615   7.577344
                   16         17         18         19         20
    16  C    0.000000
    17  C    8.741068   0.000000
    18  C    2.415954   9.019790   0.000000
    19  C    9.162981   2.789654  10.118147   0.000000
    20  C    1.394859  10.118095   2.789656  10.488137   0.000000
    21  C    9.952973   1.394996  10.359962   2.415895  11.332208
    22  C    2.789601  10.359853   1.394893  11.332121   2.415754
    23  C   10.140957   2.416036  10.855372   1.394940  11.499215
    24  C    2.416045  10.855350   2.416084  11.499213   1.394827
    25  H    4.764182   4.709516   4.680616   6.056639   6.003620
    26  H    4.704751   4.680343   4.709623   6.003316   6.056589
    27  H    5.736243   6.086764   4.575870   8.024012   6.722952
    28  H    6.935096   4.882931   6.168639   6.978097   8.039274
    29  H    6.764318   4.575554   6.086747   6.722744   8.023971
    30  H    5.858946   6.168192   4.883019   8.038822   6.978043
    31  H    7.848087   6.206735   6.415306   8.698262   8.855134
    32  H    7.904913   4.597069   6.904924   7.201166   9.089451
    33  H    7.651345   6.415961   6.205968   8.855696   8.697592
    34  H    6.260879   6.905054   4.596133   9.089417   7.200225
    35  H    5.463238   3.433008   6.128627   4.066924   6.809878
    36  H    2.676207   6.128410   3.433220   6.809670   4.067018
    37  H    8.845004   1.086240   8.828474   3.875542  10.211112
    38  H    3.411458   8.828386   1.086168  10.211053   3.875475
    39  H    9.559073   3.876323  10.725549   1.086745  10.839132
    40  H    2.163244  10.725611   3.876451  10.839224   1.086872
    41  H   10.861587   2.154502  11.116765   3.400028  12.245076
    42  H    3.875843  11.116756   2.154432  12.245105   3.399983
    43  H   11.166320   3.400150  11.927623   2.154260  12.518674
    44  H    3.400356  11.927692   3.400250  12.518761   2.154251
    45  H    7.577338   4.331502   8.973850   2.378148   8.798012
    46  H    1.915739   8.973838   4.331663   8.798006   2.378214
                   21         22         23         24         25
    21  C    0.000000
    22  C   11.691290   0.000000
    23  C    1.394780  12.133905   0.000000
    24  C   12.134005   1.394806  12.427028   0.000000
    25  H    6.060433   5.937576   6.631801   6.505689   0.000000
    26  H    5.937373   6.060383   6.505344   6.631791   2.610807
    27  H    7.461845   5.764874   8.327501   6.735330   2.366903
    28  H    6.181460   7.388380   7.115899   8.238845   2.497908
    29  H    5.764581   7.461732   6.734978   8.327471   3.904085
    30  H    7.387920   6.181460   8.238270   7.115914   4.302526
    31  H    7.458805   7.614420   8.614041   8.752666   4.254767
    32  H    5.812200   8.234699   7.010234   9.234817   3.852321
    33  H    7.615122   7.457941   8.753231   8.613304   4.956198
    34  H    8.234906   5.811260   9.234841   7.009355   4.111641
    35  H    4.600538   7.354417   4.852056   7.648308   2.152824
    36  H    7.354315   4.600571   7.648090   4.852161   2.711991
    37  H    2.135853  10.196836   3.388488  10.823132   4.586761
    38  H   10.196839   2.135841  10.823038   3.388537   4.569242
    39  H    3.395241  11.880537   2.146095  11.932095   6.832431
    40  H   11.880743   3.395208  11.932208   2.146034   6.773962
    41  H    1.086129  12.471997   2.153807  12.989736   6.828159
    42  H   12.472092   1.086242  12.989741   2.153894   6.660155
    43  H    2.153888  13.202204   1.086014  13.473154   7.714711
    44  H   13.202397   2.154008  13.473248   1.086093   7.544913
    45  H    4.555022  10.025851   3.767710   9.947756   5.501624
    46  H   10.025983   4.554975   9.947786   3.767675   5.612561
                   26         27         28         29         30
    26  H    0.000000
    27  H    3.904385   0.000000
    28  H    4.302653   1.760401   0.000000
    29  H    2.367061   4.083447   4.196855   0.000000
    30  H    2.497884   4.197260   4.975222   1.760328   0.000000
    31  H    4.956353   2.433699   2.494042   3.807946   4.286756
    32  H    4.112144   3.053633   2.450685   2.664790   3.813282
    33  H    4.255003   3.807951   4.286800   2.434067   2.493959
    34  H    3.852186   2.664808   3.813368   3.053774   2.450847
    35  H    2.711784   4.422716   4.013095   4.289876   5.067231
    36  H    2.152694   4.290095   5.067496   4.422686   4.013000
    37  H    4.569107   5.562078   4.312836   3.983607   5.672452
    38  H    4.586808   3.983947   5.672834   5.561983   4.312924
    39  H    6.773535   8.910316   7.917644   7.676928   8.905661
    40  H    6.832490   7.677231   8.906230   8.910422   7.917711
    41  H    6.659877   7.984812   6.628436   6.129533   7.830860
    42  H    6.828201   6.129905   7.831401   7.984730   6.628490
    43  H    7.544481   9.384020   8.125864   7.690237   9.216830
    44  H    7.714778   7.690662   9.217505   9.384062   8.125954
    45  H    5.612197   7.796596   7.128329   7.111772   8.012184
    46  H    5.501636   7.111992   8.012626   7.796727   7.128359
                   31         32         33         34         35
    31  H    0.000000
    32  H    1.759846   0.000000
    33  H    2.495376   2.450876   0.000000
    34  H    2.450807   3.057298   1.759871   0.000000
    35  H    5.837449   4.842090   6.129977   5.721900   0.000000
    36  H    6.129790   5.722189   5.837245   4.841491   3.052864
    37  H    5.337605   3.676664   5.574353   6.212664   3.790088
    38  H    5.573640   6.212389   5.336755   3.675736   6.222708
    39  H    9.717824   8.252228   9.861186  10.029060   4.765204
    40  H    9.860782  10.029277   9.717328   8.251430   7.362193
    41  H    7.662448   5.990189   7.797401   8.608320   5.552332
    42  H    7.796665   8.608060   7.661506   5.989292   8.230413
    43  H    9.577573   7.949738   9.691519  10.254989   5.920637
    44  H    9.690996  10.255014   9.576863   7.948928   8.693445
    45  H    9.086975   7.856806   9.270583   9.073755   3.422833
    46  H    9.270337   9.074127   9.086706   7.856109   5.645949
                   36         37         38         39         40
    36  H    0.000000
    37  H    6.222624   0.000000
    38  H    3.790170   8.510405   0.000000
    39  H    7.361872   4.962074  10.907641   0.000000
    40  H    4.765400  10.907825   4.962133  11.089448   0.000000
    41  H    8.230209   2.453162  10.872589   4.289768  12.835268
    42  H    5.552464  10.872671   2.453183  12.835179   4.289801
    43  H    8.693137   4.280560  11.900246   2.468264  12.919671
    44  H    5.920820  11.900431   4.280678  12.919647   2.468195
    45  H    5.645706   5.311656   9.301163   2.197476   8.981243
    46  H    3.422966   9.301288   5.311709   8.981144   2.197540
                   41         42         43         44         45
    41  H    0.000000
    42  H   13.206047   0.000000
    43  H    2.480325  14.065294   0.000000
    44  H   14.065381   2.480450  14.514722   0.000000
    45  H    5.621960  11.023333   4.466803  10.896487   0.000000
    46  H   11.023348   5.622017  10.896427   4.466809   6.870097
                   46
    46  H    0.000000
 Stoichiometry    C20H22N2O2
 Framework group  C1[X(C20H22N2O2)]
 Deg. of freedom   132
 Full point group                 C1      NOp   1
 Largest Abelian subgroup         C1      NOp   1
 Largest concise Abelian subgroup C1      NOp   1
                         Standard orientation:                         
 ---------------------------------------------------------------------
 Center     Atomic      Atomic             Coordinates (Angstroms)
 Number     Number       Type             X           Y           Z
 ---------------------------------------------------------------------
      1          8           0       -2.986705   -2.915518    0.306817
      2          8           0        2.986691   -2.915639   -0.306547
      3          7           0       -1.807591    1.039577    0.425687
      4          7           0        1.807508    1.039366   -0.425684
      5          6           0       -0.367180    1.206170    0.672709
      6          6           0        0.367100    1.205973   -0.672505
      7          6           0       -0.153555    2.494666    1.471763
      8          6           0        0.153385    2.494577   -1.471748
      9          6           0       -0.407417    3.752970    0.643886
     10          6           0        0.407957    3.752773   -0.643962
     11          6           0       -2.163455   -0.195121    0.389769
     12          6           0        2.163364   -0.195236   -0.389576
     13          6           0       -3.562048   -0.592015    0.153977
     14          6           0        3.561953   -0.592142   -0.153887
     15          6           0       -3.913006   -1.932913    0.122850
     16          6           0        3.912999   -1.932944   -0.122872
     17          6           0       -4.509757    0.402790   -0.034555
     18          6           0        4.509769    0.402853    0.034452
     19          6           0       -5.243080   -2.287907   -0.102055
     20          6           0        5.243071   -2.287850    0.102030
     21          6           0       -5.839932    0.047796   -0.259560
     22          6           0        5.839841    0.047747    0.259255
     23          6           0       -6.206593   -1.297502   -0.293360
     24          6           0        6.206592   -1.297555    0.293044
     25          1           0        0.005062    0.387666    1.305492
     26          1           0       -0.005249    0.387377   -1.305294
     27          1           0        0.878959    2.520660    1.842959
     28          1           0       -0.805700    2.505165    2.353541
     29          1           0       -0.879129    2.520583   -1.842643
     30          1           0        0.805330    2.504778   -2.353625
     31          1           0       -0.155433    4.638867    1.237875
     32          1           0       -1.474618    3.827776    0.401849
     33          1           0        0.156380    4.638776   -1.237943
     34          1           0        1.475159    3.827067   -0.401823
     35          1           0       -1.432832   -1.012525    0.526660
     36          1           0        1.432633   -1.012632   -0.526473
     37          1           0       -4.255219    1.458589   -0.014171
     38          1           0        4.255139    1.458554    0.013977
     39          1           0       -5.543133   -3.332005   -0.131064
     40          1           0        5.543215   -3.332052    0.131130
     41          1           0       -6.590376    0.818700   -0.408618
     42          1           0        6.590391    0.818743    0.408119
     43          1           0       -7.242185   -1.573697   -0.468552
     44          1           0        7.242281   -1.573760    0.468133
     45          1           0       -3.426003   -3.781316    0.249439
     46          1           0        3.425983   -3.781441   -0.249076
 ---------------------------------------------------------------------
 Rotational constants (GHZ):           0.3685524           0.1122461           0.0895717
 Leave Link  202 at Mon Dec  4 20:48:43 2023, MaxMem=  2147483648 cpu:               0.6 elap:               0.0
 (Enter /opt/gaussian/g16-c01/g16/l301.exe)
 Standard basis: 6-311++G(d,p) (5D, 7F)
 Ernie: Thresh=  0.10000D-02 Tol=  0.10000D-05 Strict=F.
 There are   706 symmetry adapted cartesian basis functions of A   symmetry.
 There are   682 symmetry adapted basis functions of A   symmetry.
   682 basis functions,  1062 primitive gaussians,   706 cartesian basis functions
    86 alpha electrons       86 beta electrons
       nuclear repulsion energy      1911.2788822601 Hartrees.
 IExCor= 7252 DFT=T Ex+Corr=MN15 ExCW=0 ScaHFX=  0.440000
 ScaDFX=  1.000000  1.000000  1.000000  1.000000 ScalE2=  1.000000  1.000000
 IRadAn=      5 IRanWt=     -1 IRanGd=            0 ICorTp=0 IEmpDi=  4
 NAtoms=   46 NActive=   46 NUniq=   46 SFac= 1.00D+00 NAtFMM=   60 NAOKFM=F Big=F
 Integral buffers will be    131072 words long.
 Raffenetti 2 integral format.
 Two-electron integral symmetry is turned on.
 Leave Link  301 at Mon Dec  4 20:48:44 2023, MaxMem=  2147483648 cpu:               2.3 elap:               0.1
 (Enter /opt/gaussian/g16-c01/g16/l302.exe)
 NPDir=0 NMtPBC=     1 NCelOv=     1 NCel=       1 NClECP=     1 NCelD=      1
         NCelK=      1 NCelE2=     1 NClLst=     1 CellRange=     0.0.
 One-electron integrals computed using PRISM.
 One-electron integral symmetry used in STVInt
 NBasis=   682 RedAO= T EigKep=  1.32D-06  NBF=   682
 NBsUse=   677 1.00D-06 EigRej=  7.20D-07 NBFU=   677
 Precomputing XC quadrature grid using
 IXCGrd= 4 IRadAn=           5 IRanWt=          -1 IRanGd=           0 AccXCQ= 0.00D+00.
 Generated NRdTot=       0 NPtTot=           0 NUsed=           0 NTot=          32
 NSgBfM=   700   700   700   700   700 MxSgAt=    46 MxSgA2=    46.
 Leave Link  302 at Mon Dec  4 20:48:46 2023, MaxMem=  2147483648 cpu:              60.4 elap:               2.4
 (Enter /opt/gaussian/g16-c01/g16/l303.exe)
 DipDrv:  MaxL=1.
 Leave Link  303 at Mon Dec  4 20:48:46 2023, MaxMem=  2147483648 cpu:               3.2 elap:               0.2
 (Enter /opt/gaussian/g16-c01/g16/l401.exe)
 ExpMin= 3.60D-02 ExpMax= 8.59D+03 ExpMxC= 1.30D+03 IAcc=3 IRadAn=         5 AccDes= 0.00D+00
 Harris functional with IExCor= 1009 and IRadAn=       5 diagonalized for initial guess.
 HarFok:  IExCor= 1009 AccDes= 0.00D+00 IRadAn=         5 IDoV= 1 UseB2=F ITyADJ=14
 ICtDFT=  3500011 ScaDFX=  1.000000  1.000000  1.000000  1.000000
 FoFCou: FMM=F IPFlag=           0 FMFlag=      100000 FMFlg1=           0
         NFxFlg=           0 DoJE=T BraDBF=F KetDBF=T FulRan=T
         wScrn=  0.000000 ICntrl=       500 IOpCl=  0 I1Cent=   200000004 NGrid=           0
         NMat0=    1 NMatS0=      1 NMatT0=    0 NMatD0=    1 NMtDS0=    0 NMtDT0=    0
 Petite list used in FoFCou.
 Harris En= -1034.66769853759    
 JPrj=0 DoOrth=F DoCkMO=F.
 Leave Link  401 at Mon Dec  4 20:48:50 2023, MaxMem=  2147483648 cpu:              83.6 elap:               3.3
 (Enter /opt/gaussian/g16-c01/g16/l502.exe)
 Integral symmetry usage will be decided dynamically.
 Closed shell SCF:
 Using DIIS extrapolation, IDIIS=  1040.
 NGot=  2147483648 LenX=  2146460598 LenY=  2145961456
 Requested convergence on RMS density matrix=1.00D-08 within 128 cycles.
 Requested convergence on MAX density matrix=1.00D-06.
 Requested convergence on             energy=1.00D-06.
 No special actions if energy rises.
 Fock matrices will be formed incrementally for  20 cycles.

 Cycle   1  Pass 1  IDiag  1:
 FoFJK:  IHMeth= 1 ICntrl=       0 DoSepK=F KAlg= 0 I1Cent=           0 FoldK=F
 IRaf= 780000000 NMat=       1 IRICut=       1 DoRegI=T DoRafI=F ISym2E= 0 IDoP0=0 IntGTp=1.
 FoFCou: FMM=F IPFlag=           0 FMFlag=      100000 FMFlg1=           0
         NFxFlg=           0 DoJE=F BraDBF=F KetDBF=F FulRan=T
         wScrn=  0.000000 ICntrl=         0 IOpCl=  0 I1Cent=           0 NGrid=           0
         NMat0=    1 NMatS0=      1 NMatT0=    0 NMatD0=    1 NMtDS0=    0 NMtDT0=    0
 Symmetry not used in FoFCou.
 E= -1033.77526153540    
 DIIS: error= 2.33D-02 at cycle   1 NSaved=   1.
 NSaved= 1 IEnMin= 1 EnMin= -1033.77526153540     IErMin= 1 ErrMin= 2.33D-02
 ErrMax= 2.33D-02  0.00D+00 EMaxC= 1.00D-01 BMatC= 6.22D-01 BMatP= 6.22D-01
 IDIUse=3 WtCom= 7.67D-01 WtEn= 2.33D-01
 Coeff-Com:  0.100D+01
 Coeff-En:   0.100D+01
 Coeff:      0.100D+01
 Gap=     0.234 Goal=   None    Shift=    0.000
 GapD=    0.234 DampG=1.000 DampE=0.500 DampFc=0.5000 IDamp=-1.
 Damping current iteration by 5.00D-01
 RMSDP=2.44D-02 MaxDP=2.19D+00              OVMax= 1.69D-01

 Cycle   2  Pass 1  IDiag  1:
 RMSU=  6.88D-03    CP:  8.19D-01
 E= -1034.03219328976     Delta-E=       -0.256931754360 Rises=F Damp=T
 DIIS: error= 1.29D-02 at cycle   2 NSaved=   2.
 NSaved= 2 IEnMin= 2 EnMin= -1034.03219328976     IErMin= 2 ErrMin= 1.29D-02
 ErrMax= 1.29D-02  0.00D+00 EMaxC= 1.00D-01 BMatC= 6.03D-02 BMatP= 6.22D-01
 IDIUse=3 WtCom= 8.71D-01 WtEn= 1.29D-01
 Coeff-Com: -0.537D-01 0.105D+01
 Coeff-En:   0.000D+00 0.100D+01
 Coeff:     -0.468D-01 0.105D+01
 Gap=     0.312 Goal=   None    Shift=    0.000
 RMSDP=1.15D-02 MaxDP=2.50D+00 DE=-2.57D-01 OVMax= 1.22D-01

 Cycle   3  Pass 1  IDiag  1:
 RMSU=  7.71D-03    CP:  6.70D-01  7.14D-01
 E= -1034.28186826279     Delta-E=       -0.249674973029 Rises=F Damp=F
 DIIS: error= 6.59D-03 at cycle   3 NSaved=   3.
 NSaved= 3 IEnMin= 3 EnMin= -1034.28186826279     IErMin= 3 ErrMin= 6.59D-03
 ErrMax= 6.59D-03  0.00D+00 EMaxC= 1.00D-01 BMatC= 3.52D-02 BMatP= 6.03D-02
 IDIUse=3 WtCom= 9.34D-01 WtEn= 6.59D-02
 Coeff-Com: -0.967D-01 0.480D+00 0.616D+00
 Coeff-En:   0.000D+00 0.000D+00 0.100D+01
 Coeff:     -0.903D-01 0.449D+00 0.642D+00
 Gap=     0.229 Goal=   None    Shift=    0.000
 RMSDP=3.71D-03 MaxDP=3.48D-01 DE=-2.50D-01 OVMax= 6.52D-02

 Cycle   4  Pass 1  IDiag  1:
 RMSU=  2.13D-03    CP:  6.34D-01  9.72D-01  8.12D-01
 E= -1034.30198426452     Delta-E=       -0.020116001734 Rises=F Damp=F
 DIIS: error= 4.74D-03 at cycle   4 NSaved=   4.
 NSaved= 4 IEnMin= 4 EnMin= -1034.30198426452     IErMin= 4 ErrMin= 4.74D-03
 ErrMax= 4.74D-03  0.00D+00 EMaxC= 1.00D-01 BMatC= 1.40D-02 BMatP= 3.52D-02
 IDIUse=3 WtCom= 9.53D-01 WtEn= 4.74D-02
 Coeff-Com: -0.477D-01 0.153D+00 0.413D+00 0.481D+00
 Coeff-En:   0.000D+00 0.000D+00 0.305D+00 0.695D+00
 Coeff:     -0.455D-01 0.146D+00 0.408D+00 0.491D+00
 Gap=     0.228 Goal=   None    Shift=    0.000
 RMSDP=1.26D-03 MaxDP=1.69D-01 DE=-2.01D-02 OVMax= 2.72D-02

 Cycle   5  Pass 1  IDiag  1:
 RMSU=  6.02D-04    CP:  6.20D-01  9.49D-01  7.88D-01  6.56D-01
 E= -1034.31453253575     Delta-E=       -0.012548271224 Rises=F Damp=F
 DIIS: error= 6.50D-04 at cycle   5 NSaved=   5.
 NSaved= 5 IEnMin= 5 EnMin= -1034.31453253575     IErMin= 5 ErrMin= 6.50D-04
 ErrMax= 6.50D-04  0.00D+00 EMaxC= 1.00D-01 BMatC= 4.02D-04 BMatP= 1.40D-02
 IDIUse=3 WtCom= 9.93D-01 WtEn= 6.50D-03
 Coeff-Com: -0.150D-01 0.394D-01 0.149D+00 0.231D+00 0.596D+00
 Coeff-En:   0.000D+00 0.000D+00 0.000D+00 0.000D+00 0.100D+01
 Coeff:     -0.149D-01 0.391D-01 0.148D+00 0.229D+00 0.599D+00
 Gap=     0.227 Goal=   None    Shift=    0.000
 RMSDP=1.96D-04 MaxDP=2.25D-02 DE=-1.25D-02 OVMax= 4.20D-03

 Cycle   6  Pass 1  IDiag  1:
 RMSU=  1.54D-04    CP:  6.20D-01  9.41D-01  8.00D-01  6.48D-01  9.23D-01
 E= -1034.31485229133     Delta-E=       -0.000319755584 Rises=F Damp=F
 DIIS: error= 2.29D-04 at cycle   6 NSaved=   6.
 NSaved= 6 IEnMin= 6 EnMin= -1034.31485229133     IErMin= 6 ErrMin= 2.29D-04
 ErrMax= 2.29D-04  0.00D+00 EMaxC= 1.00D-01 BMatC= 3.33D-05 BMatP= 4.02D-04
 IDIUse=3 WtCom= 9.98D-01 WtEn= 2.29D-03
 Coeff-Com: -0.297D-02 0.538D-02 0.319D-01 0.622D-01 0.283D+00 0.621D+00
 Coeff-En:   0.000D+00 0.000D+00 0.000D+00 0.000D+00 0.000D+00 0.100D+01
 Coeff:     -0.296D-02 0.537D-02 0.318D-01 0.621D-01 0.282D+00 0.622D+00
 Gap=     0.227 Goal=   None    Shift=    0.000
 RMSDP=1.18D-04 MaxDP=1.30D-02 DE=-3.20D-04 OVMax= 1.76D-03

 Cycle   7  Pass 1  IDiag  1:
 RMSU=  5.04D-05    CP:  6.21D-01  9.35D-01  8.09D-01  6.51D-01  8.81D-01
                    CP:  9.26D-01
 E= -1034.31488144531     Delta-E=       -0.000029153981 Rises=F Damp=F
 DIIS: error= 6.52D-05 at cycle   7 NSaved=   7.
 NSaved= 7 IEnMin= 7 EnMin= -1034.31488144531     IErMin= 7 ErrMin= 6.52D-05
 ErrMax= 6.52D-05  0.00D+00 EMaxC= 1.00D-01 BMatC= 2.77D-06 BMatP= 3.33D-05
 IDIUse=1 WtCom= 1.00D+00 WtEn= 0.00D+00
 Coeff-Com:  0.215D-03-0.179D-02-0.910D-03 0.349D-02 0.705D-01 0.276D+00
 Coeff-Com:  0.652D+00
 Coeff:      0.215D-03-0.179D-02-0.910D-03 0.349D-02 0.705D-01 0.276D+00
 Coeff:      0.652D+00
 Gap=     0.227 Goal=   None    Shift=    0.000
 RMSDP=2.79D-05 MaxDP=2.21D-03 DE=-2.92D-05 OVMax= 5.56D-04

 Cycle   8  Pass 1  IDiag  1:
 RMSU=  1.80D-05    CP:  6.21D-01  9.35D-01  8.09D-01  6.53D-01  8.96D-01
                    CP:  9.34D-01  1.08D+00
 E= -1034.31488415889     Delta-E=       -0.000002713574 Rises=F Damp=F
 DIIS: error= 2.12D-05 at cycle   8 NSaved=   8.
 NSaved= 8 IEnMin= 8 EnMin= -1034.31488415889     IErMin= 8 ErrMin= 2.12D-05
 ErrMax= 2.12D-05  0.00D+00 EMaxC= 1.00D-01 BMatC= 3.67D-07 BMatP= 2.77D-06
 IDIUse=1 WtCom= 1.00D+00 WtEn= 0.00D+00
 Coeff-Com:  0.523D-03-0.169D-02-0.466D-02-0.682D-02-0.907D-03 0.521D-01
 Coeff-Com:  0.312D+00 0.650D+00
 Coeff:      0.523D-03-0.169D-02-0.466D-02-0.682D-02-0.907D-03 0.521D-01
 Coeff:      0.312D+00 0.650D+00
 Gap=     0.227 Goal=   None    Shift=    0.000
 RMSDP=1.13D-05 MaxDP=1.34D-03 DE=-2.71D-06 OVMax= 2.10D-04

 Cycle   9  Pass 1  IDiag  1:
 RMSU=  5.01D-06    CP:  6.20D-01  9.35D-01  8.08D-01  6.53D-01  9.03D-01
                    CP:  9.60D-01  1.15D+00  1.02D+00
 E= -1034.31488456047     Delta-E=       -0.000000401586 Rises=F Damp=F
 DIIS: error= 4.21D-06 at cycle   9 NSaved=   9.
 NSaved= 9 IEnMin= 9 EnMin= -1034.31488456047     IErMin= 9 ErrMin= 4.21D-06
 ErrMax= 4.21D-06  0.00D+00 EMaxC= 1.00D-01 BMatC= 2.08D-08 BMatP= 3.67D-07
 IDIUse=1 WtCom= 1.00D+00 WtEn= 0.00D+00
 Coeff-Com:  0.180D-03-0.481D-03-0.156D-02-0.283D-02-0.502D-02-0.342D-02
 Coeff-Com:  0.608D-01 0.230D+00 0.723D+00
 Coeff:      0.180D-03-0.481D-03-0.156D-02-0.283D-02-0.502D-02-0.342D-02
 Coeff:      0.608D-01 0.230D+00 0.723D+00
 Gap=     0.227 Goal=   None    Shift=    0.000
 RMSDP=3.13D-06 MaxDP=6.73D-04 DE=-4.02D-07 OVMax= 4.33D-05

 Cycle  10  Pass 1  IDiag  1:
 RMSU=  1.68D-06    CP:  6.20D-01  9.35D-01  8.08D-01  6.52D-01  9.03D-01
                    CP:  9.63D-01  1.17D+00  1.08D+00  9.23D-01
 E= -1034.31488458088     Delta-E=       -0.000000020405 Rises=F Damp=F
 DIIS: error= 2.37D-06 at cycle  10 NSaved=  10.
 NSaved=10 IEnMin=10 EnMin= -1034.31488458088     IErMin=10 ErrMin= 2.37D-06
 ErrMax= 2.37D-06  0.00D+00 EMaxC= 1.00D-01 BMatC= 4.43D-09 BMatP= 2.08D-08
 IDIUse=1 WtCom= 1.00D+00 WtEn= 0.00D+00
 Coeff-Com:  0.240D-05 0.381D-04 0.743D-04-0.238D-03-0.162D-02-0.937D-02
 Coeff-Com: -0.181D-01 0.112D-01 0.339D+00 0.679D+00
 Coeff:      0.240D-05 0.381D-04 0.743D-04-0.238D-03-0.162D-02-0.937D-02
 Coeff:     -0.181D-01 0.112D-01 0.339D+00 0.679D+00
 Gap=     0.227 Goal=   None    Shift=    0.000
 RMSDP=1.15D-06 MaxDP=1.11D-04 DE=-2.04D-08 OVMax= 2.97D-05

 Cycle  11  Pass 1  IDiag  1:
 RMSU=  6.41D-07    CP:  6.20D-01  9.35D-01  8.08D-01  6.52D-01  9.03D-01
                    CP:  9.64D-01  1.18D+00  1.11D+00  1.01D+00  8.61D-01
 E= -1034.31488458576     Delta-E=       -0.000000004882 Rises=F Damp=F
 DIIS: error= 6.69D-07 at cycle  11 NSaved=  11.
 NSaved=11 IEnMin=11 EnMin= -1034.31488458576     IErMin=11 ErrMin= 6.69D-07
 ErrMax= 6.69D-07  0.00D+00 EMaxC= 1.00D-01 BMatC= 4.10D-10 BMatP= 4.43D-09
 IDIUse=1 WtCom= 1.00D+00 WtEn= 0.00D+00
 Coeff-Com: -0.168D-04 0.627D-04 0.184D-03 0.149D-03-0.165D-03-0.332D-02
 Coeff-Com: -0.127D-01-0.198D-01 0.355D-01 0.260D+00 0.740D+00
 Coeff:     -0.168D-04 0.627D-04 0.184D-03 0.149D-03-0.165D-03-0.332D-02
 Coeff:     -0.127D-01-0.198D-01 0.355D-01 0.260D+00 0.740D+00
 Gap=     0.227 Goal=   None    Shift=    0.000
 RMSDP=3.15D-07 MaxDP=2.63D-05 DE=-4.88D-09 OVMax= 6.47D-06

 Cycle  12  Pass 1  IDiag  1:
 RMSU=  1.44D-07    CP:  6.20D-01  9.35D-01  8.08D-01  6.52D-01  9.03D-01
                    CP:  9.64D-01  1.19D+00  1.12D+00  1.02D+00  9.39D-01
                    CP:  1.12D+00
 E= -1034.31488458641     Delta-E=       -0.000000000651 Rises=F Damp=F
 DIIS: error= 2.54D-07 at cycle  12 NSaved=  12.
 NSaved=12 IEnMin=12 EnMin= -1034.31488458641     IErMin=12 ErrMin= 2.54D-07
 ErrMax= 2.54D-07  0.00D+00 EMaxC= 1.00D-01 BMatC= 6.24D-11 BMatP= 4.10D-10
 IDIUse=1 WtCom= 1.00D+00 WtEn= 0.00D+00
 Coeff-Com: -0.872D-05 0.254D-04 0.866D-04 0.106D-03 0.170D-03-0.362D-03
 Coeff-Com: -0.367D-02-0.113D-01-0.293D-01 0.490D-01 0.352D+00 0.643D+00
 Coeff:     -0.872D-05 0.254D-04 0.866D-04 0.106D-03 0.170D-03-0.362D-03
 Coeff:     -0.367D-02-0.113D-01-0.293D-01 0.490D-01 0.352D+00 0.643D+00
 Gap=     0.227 Goal=   None    Shift=    0.000
 RMSDP=1.71D-07 MaxDP=1.59D-05 DE=-6.51D-10 OVMax= 3.72D-06

 Cycle  13  Pass 1  IDiag  1:
 RMSU=  5.11D-08    CP:  6.20D-01  9.35D-01  8.08D-01  6.52D-01  9.03D-01
                    CP:  9.64D-01  1.19D+00  1.12D+00  1.02D+00  9.71D-01
                    CP:  1.18D+00  1.05D+00
 E= -1034.31488458644     Delta-E=       -0.000000000027 Rises=F Damp=F
 DIIS: error= 1.23D-07 at cycle  13 NSaved=  13.
 NSaved=13 IEnMin=13 EnMin= -1034.31488458644     IErMin=13 ErrMin= 1.23D-07
 ErrMax= 1.23D-07  0.00D+00 EMaxC= 1.00D-01 BMatC= 4.72D-12 BMatP= 6.24D-11
 IDIUse=1 WtCom= 1.00D+00 WtEn= 0.00D+00
 Coeff-Com: -0.518D-06-0.659D-06 0.181D-05 0.112D-04 0.828D-04 0.378D-03
 Coeff-Com:  0.823D-03-0.814D-03-0.160D-01-0.216D-01-0.339D-02 0.209D+00
 Coeff-Com:  0.832D+00
 Coeff:     -0.518D-06-0.659D-06 0.181D-05 0.112D-04 0.828D-04 0.378D-03
 Coeff:      0.823D-03-0.814D-03-0.160D-01-0.216D-01-0.339D-02 0.209D+00
 Coeff:      0.832D+00
 Gap=     0.227 Goal=   None    Shift=    0.000
 RMSDP=5.21D-08 MaxDP=7.96D-06 DE=-2.73D-11 OVMax= 1.27D-06

 Cycle  14  Pass 1  IDiag  1:
 RMSU=  2.88D-08    CP:  6.20D-01  9.35D-01  8.08D-01  6.52D-01  9.03D-01
                    CP:  9.64D-01  1.19D+00  1.12D+00  1.02D+00  9.73D-01
                    CP:  1.22D+00  1.09D+00  9.26D-01
 E= -1034.31488458645     Delta-E=       -0.000000000012 Rises=F Damp=F
 DIIS: error= 2.56D-08 at cycle  14 NSaved=  14.
 NSaved=14 IEnMin=14 EnMin= -1034.31488458645     IErMin=14 ErrMin= 2.56D-08
 ErrMax= 2.56D-08  0.00D+00 EMaxC= 1.00D-01 BMatC= 5.58D-13 BMatP= 4.72D-12
 IDIUse=1 WtCom= 1.00D+00 WtEn= 0.00D+00
 Coeff-Com:  0.460D-06-0.206D-05-0.534D-05-0.329D-05 0.184D-04 0.153D-03
 Coeff-Com:  0.557D-03 0.463D-03-0.333D-02-0.103D-01-0.256D-01 0.275D-01
 Coeff-Com:  0.313D+00 0.698D+00
 Coeff:      0.460D-06-0.206D-05-0.534D-05-0.329D-05 0.184D-04 0.153D-03
 Coeff:      0.557D-03 0.463D-03-0.333D-02-0.103D-01-0.256D-01 0.275D-01
 Coeff:      0.313D+00 0.698D+00
 Gap=     0.227 Goal=   None    Shift=    0.000
 RMSDP=1.50D-08 MaxDP=1.50D-06 DE=-1.23D-11 OVMax= 4.70D-07

 Cycle  15  Pass 1  IDiag  1:
 RMSU=  6.69D-09    CP:  6.20D-01  9.35D-01  8.08D-01  6.52D-01  9.03D-01
                    CP:  9.64D-01  1.19D+00  1.12D+00  1.02D+00  9.72D-01
                    CP:  1.23D+00  1.12D+00  9.96D-01  9.99D-01
 E= -1034.31488458631     Delta-E=        0.000000000139 Rises=F Damp=F
 DIIS: error= 1.73D-08 at cycle  15 NSaved=  15.
 NSaved=15 IEnMin=14 EnMin= -1034.31488458645     IErMin=15 ErrMin= 1.73D-08
 ErrMax= 1.73D-08  0.00D+00 EMaxC= 1.00D-01 BMatC= 1.55D-13 BMatP= 5.58D-13
 IDIUse=1 WtCom= 1.00D+00 WtEn= 0.00D+00
 Coeff-Com:  0.328D-06-0.916D-06-0.305D-05-0.334D-05-0.527D-05 0.962D-05
 Coeff-Com:  0.132D-03 0.364D-03 0.125D-02-0.141D-02-0.134D-01-0.284D-01
 Coeff-Com: -0.507D-03 0.353D+00 0.689D+00
 Coeff:      0.328D-06-0.916D-06-0.305D-05-0.334D-05-0.527D-05 0.962D-05
 Coeff:      0.132D-03 0.364D-03 0.125D-02-0.141D-02-0.134D-01-0.284D-01
 Coeff:     -0.507D-03 0.353D+00 0.689D+00
 Gap=     0.227 Goal=   None    Shift=    0.000
 RMSDP=5.57D-09 MaxDP=4.57D-07 DE= 1.39D-10 OVMax= 1.98D-07

 SCF Done:  E(RMN15) =  -1034.31488459     A.U. after   15 cycles
            NFock= 15  Conv=0.56D-08     -V/T= 2.0036
 KE= 1.030627034879D+03 PE=-6.232465541814D+03 EE= 2.256244740088D+03
 Leave Link  502 at Mon Dec  4 20:52:34 2023, MaxMem=  2147483648 cpu:            5787.9 elap:             224.0
 (Enter /opt/gaussian/g16-c01/g16/l601.exe)
 Copying SCF densities to generalized density rwf, IOpCl= 0 IROHF=0.

 **********************************************************************

            Population analysis using the SCF Density.

 **********************************************************************

 Orbital symmetries:
       Occupied  (A) (A) (A) (A) (A) (A) (A) (A) (A) (A) (A) (A)
                 (A) (A) (A) (A) (A) (A) (A) (A) (A) (A) (A) (A)
                 (A) (A) (A) (A) (A) (A) (A) (A) (A) (A) (A) (A)
                 (A) (A) (A) (A) (A) (A) (A) (A) (A) (A) (A) (A)
                 (A) (A) (A) (A) (A) (A) (A) (A) (A) (A) (A) (A)
                 (A) (A) (A) (A) (A) (A) (A) (A) (A) (A) (A) (A)
                 (A) (A) (A) (A) (A) (A) (A) (A) (A) (A) (A) (A)
                 (A) (A)
       Virtual   (A) (A) (A) (A) (A) (A) (A) (A) (A) (A) (A) (A)
                 (A) (A) (A) (A) (A) (A) (A) (A) (A) (A) (A) (A)
                 (A) (A) (A) (A) (A) (A) (A) (A) (A) (A) (A) (A)
                 (A) (A) (A) (A) (A) (A) (A) (A) (A) (A) (A) (A)
                 (A) (A) (A) (A) (A) (A) (A) (A) (A) (A) (A) (A)
                 (A) (A) (A) (A) (A) (A) (A) (A) (A) (A) (A) (A)
                 (A) (A) (A) (A) (A) (A) (A) (A) (A) (A) (A) (A)
                 (A) (A) (A) (A) (A) (A) (A) (A) (A) (A) (A) (A)
                 (A) (A) (A) (A) (A) (A) (A) (A) (A) (A) (A) (A)
                 (A) (A) (A) (A) (A) (A) (A) (A) (A) (A) (A) (A)
                 (A) (A) (A) (A) (A) (A) (A) (A) (A) (A) (A) (A)
                 (A) (A) (A) (A) (A) (A) (A) (A) (A) (A) (A) (A)
                 (A) (A) (A) (A) (A) (A) (A) (A) (A) (A) (A) (A)
                 (A) (A) (A) (A) (A) (A) (A) (A) (A) (A) (A) (A)
                 (A) (A) (A) (A) (A) (A) (A) (A) (A) (A) (A) (A)
                 (A) (A) (A) (A) (A) (A) (A) (A) (A) (A) (A) (A)
                 (A) (A) (A) (A) (A) (A) (A) (A) (A) (A) (A) (A)
                 (A) (A) (A) (A) (A) (A) (A) (A) (A) (A) (A) (A)
                 (A) (A) (A) (A) (A) (A) (A) (A) (A) (A) (A) (A)
                 (A) (A) (A) (A) (A) (A) (A) (A) (A) (A) (A) (A)
                 (A) (A) (A) (A) (A) (A) (A) (A) (A) (A) (A) (A)
                 (A) (A) (A) (A) (A) (A) (A) (A) (A) (A) (A) (A)
                 (A) (A) (A) (A) (A) (A) (A) (A) (A) (A) (A) (A)
                 (A) (A) (A) (A) (A) (A) (A) (A) (A) (A) (A) (A)
                 (A) (A) (A) (A) (A) (A) (A) (A) (A) (A) (A) (A)
                 (A) (A) (A) (A) (A) (A) (A) (A) (A) (A) (A) (A)
                 (A) (A) (A) (A) (A) (A) (A) (A) (A) (A) (A) (A)
                 (A) (A) (A) (A) (A) (A) (A) (A) (A) (A) (A) (A)
                 (A) (A) (A) (A) (A) (A) (A) (A) (A) (A) (A) (A)
                 (A) (A) (A) (A) (A) (A) (A) (A) (A) (A) (A) (A)
                 (A) (A) (A) (A) (A) (A) (A) (A) (A) (A) (A) (A)
                 (A) (A) (A) (A) (A) (A) (A) (A) (A) (A) (A) (A)
                 (A) (A) (A) (A) (A) (A) (A) (A) (A) (A) (A) (A)
                 (A) (A) (A) (A) (A) (A) (A) (A) (A) (A) (A) (A)
                 (A) (A) (A) (A) (A) (A) (A) (A) (A) (A) (A) (A)
                 (A) (A) (A) (A) (A) (A) (A) (A) (A) (A) (A) (A)
                 (A) (A) (A) (A) (A) (A) (A) (A) (A) (A) (A) (A)
                 (A) (A) (A) (A) (A) (A) (A) (A) (A) (A) (A) (A)
                 (A) (A) (A) (A) (A) (A) (A) (A) (A) (A) (A) (A)
                 (A) (A) (A) (A) (A) (A) (A) (A) (A) (A) (A) (A)
                 (A) (A) (A) (A) (A) (A) (A) (A) (A) (A) (A) (A)
                 (A) (A) (A) (A) (A) (A) (A) (A) (A) (A) (A) (A)
                 (A) (A) (A) (A) (A) (A) (A) (A) (A) (A) (A) (A)
                 (A) (A) (A) (A) (A) (A) (A) (A) (A) (A) (A) (A)
                 (A) (A) (A) (A) (A) (A) (A) (A) (A) (A) (A) (A)
                 (A) (A) (A) (A) (A) (A) (A) (A) (A) (A) (A) (A)
                 (A) (A) (A) (A) (A) (A) (A) (A) (A) (A) (A) (A)
                 (A) (A) (A) (A) (A) (A) (A) (A) (A) (A) (A) (A)
                 (A) (A) (A) (A) (A) (A) (A) (A) (A) (A) (A) (A)
                 (A) (A) (A)
 The electronic state is 1-A.
 Alpha  occ. eigenvalues --  -18.84467 -18.84466 -14.07799 -14.07796 -10.11648
 Alpha  occ. eigenvalues --  -10.11648 -10.07936 -10.07935 -10.05988 -10.05955
 Alpha  occ. eigenvalues --  -10.05402 -10.05401 -10.05047 -10.05046 -10.04933
 Alpha  occ. eigenvalues --  -10.04933 -10.04643 -10.04642 -10.04087 -10.04086
 Alpha  occ. eigenvalues --  -10.01747 -10.01745 -10.01326 -10.01291  -1.11892
 Alpha  occ. eigenvalues --   -1.11890  -0.97652  -0.95690  -0.91102  -0.90755
 Alpha  occ. eigenvalues --   -0.85619  -0.81525  -0.81309  -0.79091  -0.79089
 Alpha  occ. eigenvalues --   -0.77381  -0.76112  -0.69527  -0.68932  -0.68008
 Alpha  occ. eigenvalues --   -0.66783  -0.63825  -0.63801  -0.61610  -0.60838
 Alpha  occ. eigenvalues --   -0.59547  -0.59521  -0.56764  -0.55479  -0.54719
 Alpha  occ. eigenvalues --   -0.52784  -0.52272  -0.51993  -0.49497  -0.49335
 Alpha  occ. eigenvalues --   -0.49086  -0.48541  -0.48215  -0.47923  -0.47912
 Alpha  occ. eigenvalues --   -0.47298  -0.45917  -0.44566  -0.44458  -0.44092
 Alpha  occ. eigenvalues --   -0.42523  -0.41026  -0.40709  -0.40659  -0.40269
 Alpha  occ. eigenvalues --   -0.40139  -0.39899  -0.38993  -0.37556  -0.37365
 Alpha  occ. eigenvalues --   -0.36459  -0.36383  -0.34597  -0.33113  -0.32827
 Alpha  occ. eigenvalues --   -0.30029  -0.29549  -0.28630  -0.28136  -0.26853
 Alpha  occ. eigenvalues --   -0.26171
 Alpha virt. eigenvalues --   -0.03465  -0.02395   0.01617   0.01748   0.02362
 Alpha virt. eigenvalues --    0.02742   0.03936   0.04273   0.04495   0.05010
 Alpha virt. eigenvalues --    0.05619   0.05822   0.06168   0.06180   0.06377
 Alpha virt. eigenvalues --    0.07148   0.07334   0.08068   0.08243   0.08496
 Alpha virt. eigenvalues --    0.08801   0.09178   0.09778   0.09959   0.10786
 Alpha virt. eigenvalues --    0.11001   0.11080   0.11088   0.11549   0.11818
 Alpha virt. eigenvalues --    0.11968   0.12606   0.13032   0.13810   0.13834
 Alpha virt. eigenvalues --    0.13843   0.14028   0.14282   0.14400   0.14487
 Alpha virt. eigenvalues --    0.14996   0.15113   0.15275   0.15559   0.15578
 Alpha virt. eigenvalues --    0.16099   0.16352   0.16420   0.16773   0.16801
 Alpha virt. eigenvalues --    0.17457   0.17538   0.17610   0.17924   0.18256
[...]
 1566,0.00000057,0.00000112,-0.00000575,-0.00000496,-0.00000708,-0.0000
 0070,0.00000207,-0.00001941,0.00001225,0.00002254,0.00000158,-0.000000
 79,0.00000194,-0.00052641,0.00014136,0.00020796,0.00000460,0.00000165,
 -0.00000109,0.00034775,0.00090668,-0.00096994,-0.00000137,0.00000258,-
 0.00000050,0.00035214,0.00045079,-0.00115539,-0.00000092,-0.00000078,0
 .00000159,0.33863562,0.00120047,-0.00008086,-0.00039199,-0.00000232,-0
 .00000192,0.00000151,-0.00013020,0.00011800,-0.00002273,-0.00000883,0.
 00000255,0.00000048,0.00003918,0.00003899,0.00001423,0.00000850,-0.000
 00436,-0.00000283,0.00000016,-0.00000159,-0.00000116,0.00001239,0.0000
 0004,-0.00000687,0.00001010,-0.00000191,-0.00000267,-0.00000242,0.0000
 0452,0.00000200,0.00000082,-0.00023306,0.00034197,0.00000708,-0.000001
 60,-0.00000137,0.00045158,-0.00126895,-0.00015264,-0.00000253,-0.00000
 231,0.00000054,0.00068089,-0.00031461,-0.00537566,0.00000114,0.0000010
 1,-0.00000075,-0.00340142,-0.00198550,-0.00444561,0.00000048,0.0000018
 2,-0.00000117,0.02029061,0.00630885,-0.00527071,-0.00000065,0.00000044
 ,0.00000122,-0.02343468,0.00243871,0.00684335,-0.00000123,0.00000191,0
 .00000056,-0.03967468,-0.05745537,0.00049192,-0.00000116,-0.00000131,-
 0.00000013,-0.00001591,0.00000283,0.00001511,-0.00000011,-0.00000435,0
 .00000288,-0.00000042,0.00000104,0.,0.00000176,-0.00000052,0.00000109,
 0.00000139,0.00000530,0.00000922,-0.00000362,-0.00000047,-0.00000013,-
 0.00000504,-0.00000366,0.00000383,0.00000003,0.00000631,-0.00000337,0.
 00000102,-0.00000167,-0.00000107,-0.00000248,-0.00000157,0.00000141,-0
 .00005893,0.00000322,0.00000609,0.00000025,-0.00000056,0.00000074,-0.0
 0097374,-0.00005122,0.00041870,0.00000119,0.00000023,-0.00000061,0.000
 23237,-0.00049013,0.00234236,-0.00000011,0.00000018,-0.00000029,0.0012
 5878,-0.00035331,0.00186328,-0.00000062,-0.00000052,0.00000027,0.04348
 802,0.05317353,0.00105169,-0.00005779,-0.00050680,0.00000461,0.0000054
 0,-0.00000403,0.00006041,-0.00002462,0.00018682,0.00000889,0.00000324,
 0.00000017,-0.00001087,0.00001617,0.00000860,-0.00000141,-0.00000031,-
 0.00000326,0.00000719,-0.00000275,-0.00000361,-0.00000071,-0.00000131,
 0.00000046,0.00000703,-0.00000219,-0.00000270,-0.00000082,-0.00000052,
 0.00000280,-0.00026663,0.00027685,-0.00048138,-0.00000566,-0.00000256,
 0.00000495,-0.00031195,-0.00006947,-0.00121748,0.00000123,0.00000237,-
 0.00000302,0.00239674,-0.00542183,0.00327901,-0.00000333,-0.00000413,0
 .00000463,-0.00013298,-0.00435691,0.00388725,0.00000029,-0.00000187,0.
 00000187,0.01755147,0.00305339,-0.00025772,0.00000160,0.00000024,-0.00
 000146,-0.01040014,-0.00146307,0.00682566,0.00000111,-0.00000143,-0.00
 000099,0.07140260,0.00037597,-0.06143290,0.00000045,0.00000053,-0.0000
 0013,-0.00000926,0.00000593,-0.00000620,-0.00000115,0.00000569,-0.0000
 0394,-0.00000114,0.00000304,0.00000032,-0.00000222,-0.00000098,-0.0000
 0208,0.00000292,-0.00000364,-0.00000157,-0.00000216,0.00000168,0.00000
 010,0.00000095,0.00000334,-0.00000144,-0.00000231,0.00000393,0.0000026
 4,-0.00000027,0.00000132,0.00000034,-0.00000017,0.00000008,-0.00000179
 ,-0.00002372,-0.00001703,0.00002095,0.00000035,0.00000098,-0.00000223,
 -0.00051339,0.00003904,0.00001644,-0.00000103,-0.00000013,0.00000064,-
 0.00140924,0.00211155,-0.00237400,-0.00000006,-0.00000010,0.00000029,-
 0.00063204,0.00213795,-0.00228946,0.00000066,0.00000065,-0.00000017,-0
 .07878252,0.00321835,0.05427115,0.00000320,-0.00001502,-0.00001366,-0.
 00091046,-0.00022961,0.00042318,-0.00004217,-0.00001866,-0.00002600,-0
 .00018356,0.00011767,0.00005526,0.00002077,0.00000485,0.00002136,0.000
 08017,-0.00003375,-0.00000213,0.00000723,0.00000103,-0.00000375,-0.000
 01455,-0.00000782,-0.00000886,0.00000160,-0.00000421,0.00000440,0.0000
 1800,-0.00000111,-0.00000128,0.00003464,0.00001891,0.00000083,0.000027
 52,-0.00015479,-0.00016458,-0.00001042,0.00000019,0.00000656,0.0005029
 6,-0.00021166,-0.00046947,-0.00000721,0.00001649,0.00001469,0.00187131
 ,-0.00081121,0.00248392,0.00000347,-0.00000445,-0.00000527,0.00059035,
 0.00367431,-0.00031070,0.00000386,0.00000036,-0.00000298,-0.00909587,0
 .00409425,0.00173288,-0.00000784,-0.00000771,-0.00000406,-0.00980898,-
 0.00091535,0.00538554,-0.00000466,0.00000546,0.00000562,-0.32178754,0.
 03933358,0.07166394,0.00000011,0.00000258,0.00000429,-0.00002201,-0.00
 000968,0.00000892,0.00000142,-0.00000859,0.00001511,-0.00001142,0.0000
 0322,-0.00000701,-0.00001094,0.00001048,0.00000828,0.00000431,-0.00000
 370,-0.00000721,0.00000112,0.00000575,-0.00000496,-0.00000708,0.000000
 70,0.00000207,-0.00000711,0.00001006,0.00000334,-0.00000433,-0.0000156
 6,0.00000057,0.00000158,0.00000079,0.00000194,-0.00001941,-0.00001225,
 0.00002254,0.00000460,-0.00000165,-0.00000109,-0.00052636,-0.00014135,
 0.00020795,-0.00000137,-0.00000258,-0.00000050,0.00034748,-0.00090675,
 -0.00097048,-0.00000092,0.00000078,0.00000159,0.00035187,-0.00045082,-
 0.00115582,-0.00000192,-0.00000046,0.00000061,0.33861684,0.00000232,-0
 .00000192,-0.00000151,-0.00120055,-0.00008080,0.00039211,0.00000884,0.
 00000256,-0.00000048,0.00013021,0.00011799,0.00002273,-0.00000851,-0.0
 0000437,0.00000283,-0.00003919,0.00003900,-0.00001424,-0.00001239,0.00
 000004,0.00000687,-0.00000017,-0.00000160,0.00000116,0.00000242,0.0000
 0451,-0.00000201,-0.00001011,-0.00000191,0.00000267,-0.00000708,-0.000
 00160,0.00000136,-0.00000083,-0.00023294,-0.00034193,0.00000253,-0.000
 00231,-0.00000054,-0.00045167,-0.00126896,0.00015272,-0.00000114,0.000
 00101,0.00000075,-0.00068101,-0.00031618,0.00537494,-0.00000048,0.0000
 0182,0.00000117,0.00340156,-0.00198743,0.00444443,0.00000065,0.0000004
 4,-0.00000122,-0.02029171,0.00630982,0.00527307,0.00000123,0.00000191,
 -0.00000056,0.02343680,0.00243768,-0.00684618,0.00000116,-0.00000131,0
 .00000013,0.03968568,-0.05746193,-0.00050024,0.00000011,-0.00000435,-0
 .00000287,0.00001592,0.00000283,-0.00001511,-0.00000139,0.00000530,-0.
 00000922,0.00000362,-0.00000047,0.00000013,0.00000042,0.00000104,0.,-0
 .00000176,-0.00000053,-0.00000108,-0.00000102,-0.00000167,0.00000107,0
 .00000249,-0.00000157,-0.00000141,0.00000504,-0.00000366,-0.00000383,-
 0.00000003,0.00000631,0.00000337,-0.00000025,-0.00000056,-0.00000074,0
 .00005894,0.00000321,-0.00000610,-0.00000119,0.00000023,0.00000061,0.0
 0097383,-0.00005122,-0.00041880,0.00000011,0.00000018,0.00000029,-0.00
 023239,-0.00048934,-0.00234197,0.00000062,-0.00000052,-0.00000027,-0.0
 0125887,-0.00035253,-0.00186280,0.00000046,0.00000030,-0.00000016,-0.0
 4349991,0.05318190,0.00000461,-0.00000540,-0.00000403,0.00105153,0.000
 05779,-0.00050684,0.00000890,-0.00000324,0.00000017,0.00006044,0.00002
 460,0.00018682,-0.00000142,0.00000031,-0.00000326,-0.00001088,-0.00001
 615,0.00000859,-0.00000071,0.00000130,0.00000046,0.00000719,0.00000275
 ,-0.00000361,-0.00000082,0.00000052,0.00000280,0.00000702,0.00000219,-
 0.00000269,-0.00000566,0.00000256,0.00000494,-0.00026669,-0.00027677,-
 0.00048146,0.00000123,-0.00000237,-0.00000302,-0.00031214,0.00006946,-
 0.00121738,-0.00000333,0.00000413,0.00000463,0.00239726,0.00542111,0.0
 0328034,0.00000028,0.00000187,0.00000187,-0.00013181,0.00435579,0.0038
 8862,0.00000160,-0.00000024,-0.00000146,0.01754863,-0.00305419,-0.0002
 5872,0.00000112,0.00000143,-0.00000099,-0.01039520,0.00146334,0.006825
 17,0.00000045,-0.00000053,-0.00000013,0.07142771,-0.00038425,-0.061443
 48,-0.00000115,-0.00000569,-0.00000394,-0.00000924,-0.00000593,-0.0000
 0620,0.00000292,0.00000364,-0.00000157,-0.00000216,-0.00000168,0.00000
 010,-0.00000114,-0.00000304,0.00000032,-0.00000222,0.00000098,-0.00000
 208,-0.00000027,-0.00000133,0.00000034,-0.00000017,-0.00000008,-0.0000
 0179,0.00000095,-0.00000334,-0.00000145,-0.00000230,-0.00000393,0.0000
 0263,0.00000035,-0.00000098,-0.00000223,-0.00002370,0.00001703,0.00002
 095,-0.00000103,0.00000013,0.00000064,-0.00051320,-0.00003899,0.000016
 40,-0.00000006,0.00000010,0.00000029,-0.00140964,-0.00211107,-0.002374
 53,0.00000066,-0.00000065,-0.00000017,-0.00063260,-0.00213756,-0.00228
 997,0.00000061,0.00000016,0.00000003,-0.07881027,-0.00320870,0.0542816
 6,-0.23790192,-0.25437043,-0.08532486,0.00002973,0.00005265,-0.0000149
 4,0.00015407,-0.00039118,-0.00025849,-0.00002646,0.00004372,-0.0000294
 0,0.00012653,0.00000972,-0.00005889,0.00002379,-0.00002808,0.00003880,
 -0.00000265,0.00000958,-0.00000632,-0.00000258,-0.00000146,-0.00001434
 ,0.00001643,-0.00000396,0.00000024,0.00000332,0.00000233,0.00000597,-0
 .00103716,0.00014747,0.00040385,0.00001512,-0.00004260,0.00000225,-0.0
 0135392,0.00345268,0.00266673,-0.00000716,0.00001615,0.00000287,0.0119
 1622,0.01748978,0.00725982,-0.00002987,-0.00004494,0.00003462,0.000800
 65,-0.00026207,0.00023390,0.00000111,0.00000003,0.00000112,0.00204948,
 0.00467046,0.00180208,0.00001180,0.00000666,-0.00000411,-0.00035448,0.
 00000957,0.00009529,-0.00000434,0.00000766,-0.00000022,-0.00079109,-0.
 00019959,-0.00004200,-0.00000619,-0.00000467,0.00000842,0.00000314,0.0
 0003484,0.00002039,0.00000039,0.00000741,-0.00000559,-0.00001187,-0.00
 001324,0.00000812,0.00000825,0.00000255,-0.00000721,-0.00000599,0.0000
 0788,0.00001350,-0.00000779,-0.00000440,-0.00000671,-0.00000478,-0.000
 00364,-0.00000021,-0.00001110,0.00000725,0.00000421,0.00000058,0.00000
 173,-0.00000102,-0.00000693,-0.00000311,0.00000023,0.00051104,-0.00017
 760,-0.00038901,0.00000435,-0.00000074,-0.00000890,-0.00010792,0.00013
 959,0.00007291,0.00000188,-0.00000099,-0.00000310,-0.00102038,-0.00185
 451,-0.00065133,-0.00000388,0.00000038,-0.00000342,-0.00008499,-0.0001
 2893,-0.00006389,-0.00000024,-0.00000056,-0.00000199,-0.00000788,0.000
 03234,0.00001600,-0.00000042,-0.00000097,-0.00000160,0.22712514,-0.215
 12085,-0.29267378,-0.11593133,-0.00003736,-0.00008792,0.00004328,0.000
 26440,0.00032380,0.00004054,0.00011209,-0.00007165,0.00008832,-0.00020
 041,0.00002402,0.00011175,-0.00004292,0.00002576,-0.00010606,0.0000405
 9,-0.00004836,-0.00000504,0.00001213,0.00000307,0.00000868,-0.00002097
 ,-0.00001451,-0.00000234,-0.00001003,-0.00000491,-0.00001034,-0.000079
 90,0.00007680,0.00018399,-0.00008602,0.00007710,-0.00000057,0.00422188
 ,-0.00067464,-0.00185544,0.00002862,-0.00001555,-0.00001420,-0.0185520
 4,-0.02602139,-0.01041700,0.00004526,0.00008095,-0.00006859,-0.0017180
 7,-0.00013290,-0.00077321,-0.00001021,-0.00001305,0.00000488,-0.001406
 89,0.00379182,0.00393430,-0.00002092,-0.00000534,0.00001131,0.00040574
 ,0.00074650,0.00040536,0.00002090,-0.00002182,0.00001290,-0.00028545,-
 0.00118758,-0.00031231,0.00001459,0.00001604,-0.00002251,0.00002601,-0
 .00002786,-0.00002927,-0.00000184,-0.00000129,-0.00000483,0.00003303,0
 .00004165,-0.00002215,-0.00001064,-0.00001203,0.00002829,0.00000301,-0
 .00002394,-0.00002987,0.00001948,0.00001084,0.00002248,0.00000763,0.00
 001833,-0.00000214,0.00001146,-0.00002230,-0.00000710,-0.00000134,0.00
 000968,0.00001086,0.00001610,0.00000366,-0.00000421,-0.00007910,-0.000
 15090,0.00011975,-0.00000721,0.00000339,0.00000465,0.00020226,-0.00019
 651,-0.00009816,-0.00001074,-0.00000197,0.00000590,0.00091228,-0.00002
 053,-0.00071476,0.00000702,-0.00000589,0.00000535,0.00004387,0.0000446
 3,0.00002928,0.00000160,0.00000163,-0.00000122,-0.00016258,0.00015125,
 0.00016567,0.00000466,0.00000033,0.00000059,0.23139806,0.31595957,-0.0
 5978184,-0.10264490,-0.04849935,0.00001916,0.00001222,-0.00001312,0.00
 018290,0.00023784,0.00026775,0.00009696,-0.00000636,0.00001450,-0.0002
 2096,0.00005952,0.00000885,-0.00004937,-0.00003745,-0.00001789,0.00007
 789,-0.00004192,0.00004516,-0.00001471,-0.00000141,-0.00000426,-0.0000
 1321,0.00000673,-0.00001344,-0.00000494,-0.00000902,0.00000514,0.00023
 955,0.00009284,-0.00018118,-0.00007222,0.00000667,0.00001841,0.0031996
 3,-0.00154774,-0.00215137,0.00001361,0.00000423,-0.00003615,-0.0162158
 1,-0.02263649,-0.00949625,-0.00000769,-0.00000204,0.00002249,-0.000735
 18,-0.00127477,0.00139595,-0.00000380,-0.00000838,0.00001397,-0.002138
 39,0.00187318,0.00040532,0.00000244,-0.00000223,-0.00001064,0.00035464
 ,0.00054303,0.00014147,0.00001360,-0.00001555,-0.00000576,-0.00010071,
 -0.00035723,-0.00073667,0.00001055,0.00000703,-0.00000435,0.00002231,-
 0.00003370,-0.00001323,-0.00000653,0.00002721,-0.00002633,0.00002593,0
 .00003809,-0.00001465,-0.00002680,-0.00000074,-0.00000614,0.00001233,-
 0.00001704,-0.00001918,0.00000717,0.00000588,0.00000564,0.00001040,0.0
 0002643,-0.00000534,0.00000588,-0.00002524,-0.00000296,-0.00000130,0.0
 0000854,0.00000327,0.00001021,0.00000096,-0.00000789,-0.00032688,0.000
 16345,-0.00008544,0.00000126,0.00000820,-0.00000536,0.00011360,-0.0000
 7582,-0.00024156,-0.00000980,-0.00000231,0.00000458,0.00115333,0.00022
 647,0.00035197,0.00000217,-0.00000124,0.00000376,0.00004853,0.00008920
 ,0.00001478,0.00000521,0.00000577,-0.00000041,-0.00011015,0.00010046,0
 .00008306,0.00000481,-0.00000001,0.00000020,0.07421365,0.12519608,0.05
 879104,0.00002973,-0.00005265,-0.00001495,-0.23787270,0.25438668,-0.08
 526103,-0.00002646,-0.00004373,-0.00002942,0.00015407,0.00039118,-0.00
 025846,0.00002379,0.00002809,0.00003883,0.00012652,-0.00000973,-0.0000
 5890,-0.00000258,0.00000146,-0.00001434,-0.00000266,-0.00000958,-0.000
 00631,0.00000332,-0.00000232,0.00000597,0.00001644,0.00000395,0.000000
 24,0.00001512,0.00004260,0.00000228,-0.00103711,-0.00014744,0.00040388
 ,-0.00000717,-0.00001614,0.00000284,-0.00135415,-0.00345288,0.00266629
 ,-0.00002987,0.00004494,0.00003464,0.01191564,-0.01749257,0.00725634,0
 .00000111,-0.00000003,0.00000113,0.00080077,0.00026202,0.00023405,0.00
 001180,-0.00000666,-0.00000412,0.00204919,-0.00467073,0.00180089,-0.00
 000434,-0.00000766,-0.00000022,-0.00035446,-0.00000953,0.00009530,-0.0
 0000619,0.00000467,0.00000842,-0.00079105,0.00019960,-0.00004193,0.000
 00039,-0.00000741,-0.00000559,0.00000314,-0.00003484,0.00002039,-0.000
 00599,-0.00000788,0.00001350,-0.00000779,0.00000440,-0.00000671,-0.000
 01187,0.00001324,0.00000812,0.00000825,-0.00000256,-0.00000721,0.00000
 058,-0.00000173,-0.00000102,-0.00000693,0.00000311,0.00000023,-0.00000
 478,0.00000364,-0.00000021,-0.00001110,-0.00000725,0.00000421,0.000004
 35,0.00000074,-0.00000891,0.00051103,0.00017762,-0.00038900,0.00000188
 ,0.00000099,-0.00000310,-0.00010793,-0.00013960,0.00007288,-0.00000388
 ,-0.00000038,-0.00000342,-0.00102027,0.00185469,-0.00065088,-0.0000002
 4,0.00000056,-0.00000199,-0.00008499,0.00012895,-0.00006386,-0.0000004
 2,0.00000097,-0.00000160,-0.00000787,-0.00003234,0.00001598,-0.0000110
 5,0.00001282,-0.00000742,0.22709673,0.00003736,-0.00008791,-0.00004329
 ,0.21513401,-0.29274826,0.11588419,-0.00011211,-0.00007165,-0.00008834
 ,-0.00026440,0.00032381,-0.00004051,0.00004294,0.00002577,0.00010610,0
 .00020041,0.00002402,-0.00011177,-0.00001213,0.00000307,-0.00000867,-0
 .00004061,-0.00004837,0.00000504,0.00001003,-0.00000490,0.00001034,0.0
 0002097,-0.00001451,0.00000234,0.00008604,0.00007709,0.00000062,0.0000
 7994,0.00007682,-0.00018404,-0.00002864,-0.00001553,0.00001417,-0.0042
 2216,-0.00067436,0.00185589,-0.00004526,0.00008094,0.00006860,0.018552
 11,-0.02602684,0.01041232,0.00001021,-0.00001306,-0.00000488,0.0017181
 2,-0.00013345,0.00077276,0.00002092,-0.00000534,-0.00001131,0.00140710
 ,0.00379304,-0.00393397,-0.00002090,-0.00002182,-0.00001290,-0.0004057
 0,0.00074669,-0.00040523,-0.00001459,0.00001604,0.00002252,0.00028545,
 -0.00118773,0.00031219,0.00000184,-0.00000129,0.00000484,-0.00002600,-
 0.00002786,0.00002928,-0.00000301,-0.00002394,0.00002987,-0.00001948,0
 .00001084,-0.00002249,-0.00003303,0.00004166,0.00002214,0.00001065,-0.
 00001203,-0.00002828,0.00000134,0.00000968,-0.00001086,-0.00001610,0.0
 0000366,0.00000421,-0.00000763,0.00001834,0.00000214,-0.00001146,-0.00
 002230,0.00000710,0.00000720,0.00000339,-0.00000466,0.00007909,-0.0001
 5086,-0.00011971,0.00001074,-0.00000197,-0.00000590,-0.00020227,-0.000
 19651,0.00009819,-0.00000702,-0.00000589,-0.00000535,-0.00091233,-0.00
 002068,0.00071482,-0.00000160,0.00000163,0.00000122,-0.00004387,0.0000
 4465,-0.00002927,-0.00000466,0.00000033,-0.00000059,0.00016260,0.00015
 128,-0.00016567,-0.00001282,0.00002577,0.00000157,-0.23141128,0.316038
 53,0.00001916,-0.00001223,-0.00001313,-0.05972532,0.10259278,-0.048454
 24,0.00009696,0.00000635,0.00001448,0.00018287,-0.00023788,0.00026771,
 -0.00004938,0.00003746,-0.00001787,-0.00022095,-0.00005953,0.00000887,
 -0.00001472,0.00000140,-0.00000426,0.00007786,0.00004192,0.00004515,-0
 .00000495,0.00000903,0.00000513,-0.00001320,-0.00000674,-0.00001343,-0
 .00007222,-0.00000665,0.00001841,0.00023960,-0.00009280,-0.00018129,0.
 00001360,-0.00000422,-0.00003616,0.00319905,0.00154815,-0.00215113,-0.
 00000769,0.00000204,0.00002249,-0.01621255,0.02263633,-0.00949048,-0.0
 0000380,0.00000838,0.00001397,-0.00073481,0.00127450,0.00139626,0.0000
 0245,0.00000223,-0.00001063,-0.00213845,-0.00187210,0.00040448,0.00001
 361,0.00001555,-0.00000576,0.00035461,-0.00054296,0.00014131,0.0000105
 5,-0.00000703,-0.00000435,-0.00010064,0.00035716,-0.00073657,-0.000006
 52,-0.00002722,-0.00002632,0.00002231,0.00003370,-0.00001324,0.0000123
 3,0.00001703,-0.00001918,0.00000717,-0.00000587,0.00000564,0.00002592,
 -0.00003807,-0.00001465,-0.00002679,0.00000074,-0.00000615,-0.00000130
 ,-0.00000854,0.00000328,0.00001021,-0.00000096,-0.00000789,0.00001040,
 -0.00002643,-0.00000534,0.00000588,0.00002524,-0.00000296,0.00000126,-
 0.00000820,-0.00000536,-0.00032692,-0.00016345,-0.00008544,-0.00000980
 ,0.00000230,0.00000458,0.00011357,0.00007583,-0.00024154,0.00000217,0.
 00000124,0.00000376,0.00115326,-0.00022677,0.00035200,0.00000521,-0.00
 000577,-0.00000041,0.00004852,-0.00008921,0.00001476,0.00000481,0.0000
 0001,0.00000020,-0.00011013,-0.00010044,0.00008303,-0.00000742,-0.0000
 0156,0.00000160,0.07415421,-0.12514475,0.05874066\\0.00000017,-0.00000
 007,-0.00000015,-0.00000013,0.00000001,0.00000030,0.00000598,-0.000000
 66,-0.00000233,-0.00000548,-0.00000005,0.00000368,-0.00000977,-0.00000
 158,-0.00000015,0.00001128,0.00000003,0.00000206,0.00000030,0.00000084
 ,0.00000384,-0.00000109,0.00000106,-0.00000348,-0.00000105,-0.00000137
 ,0.00000098,0.00000094,-0.00000107,-0.00000117,0.00000028,0.00000410,-
 0.00000369,-0.00000390,-0.00000299,-0.00000719,0.00000029,-0.00000215,
 0.00000107,0.00000117,0.00000059,0.00000317,0.00000040,0.00000028,0.00
 000021,-0.00000025,0.00000058,0.00000021,0.00000064,-0.00000013,0.0000
 0018,-0.00000055,0.00000001,0.00000011,-0.00000094,0.00000021,0.000000
 16,0.00000078,-0.00000005,-0.00000055,-0.00000064,0.00000009,0.0000000
 9,0.00000062,-0.00000002,-0.00000023,0.00000020,-0.00000026,0.00000004
 ,-0.00000020,-0.00000026,-0.00000005,0.00000063,-0.00000053,-0.0000004
 1,-0.00000064,-0.00000057,0.00000022,-0.00000076,-0.00000044,-0.000000
 62,-0.00000022,0.00000049,-0.00000146,0.00000068,-0.00000011,0.0000007
 4,0.00000020,0.00000044,0.00000141,0.00000052,-0.00000028,-0.00000103,
 0.00000024,0.00000098,-0.00000034,-0.00000052,-0.00000023,0.00000096,-
 0.00000028,0.00000100,0.00000031,0.00000014,-0.00000079,0.00000106,0.0
 0000096,0.00000132,0.00000212,-0.00000036,-0.00000004,-0.00000009,0.00
 000034,-0.00000007,0.00000002,0.00000033,0.00000004,0.,-0.00000034,0.0
 0000004,0.,-0.00000010,-0.00000003,-0.00000003,0.00000009,-0.00000006,
 -0.00000004,0.,0.00000021,0.00000023,0.00000001,0.00000025,-0.00000016
 ,0.00000036,0.00000060,0.00000039,-0.00000035,0.00000063,-0.00000036\\
 \@
 The archive entry for this job was punched.


 IT IS A PROFOUNDLY ERRONEOUS TRUISM ... THAT WE SHOULD CULTIVATE
 THE HABIT OF THINKING OF WHAT WE ARE DOING.
 THE PRECISE OPPOSITE IS THE CASE.
 CIVILIZATION ADVANCES BY EXTENDING THE NUMBER OF IMPORTANT OPERATIONS
 WHICH WE CAN PERFORM WITHOUT THINKING ABOUT THEM.

                                    -- ALFRED NORTH WHITEHEAD
 Job cpu time:       0 days 23 hours 33 minutes 53.4 seconds.
 Elapsed time:       0 days  0 hours 54 minutes 56.4 seconds.
 File lengths (MBytes):  RWF=   1833 Int=      0 D2E=      0 Chk=     44 Scr=      1
 Normal termination of Gaussian 16 at Mon Dec  4 22:37:21 2023.
