 Entering Gaussian System, Link 0=g16
 Input=/home/exlonk/in_progress/3975.inp
 Output=/home/exlonk/in_progress/3975.log
 Initial command:
 /opt/gaussian/g16-c01/g16/l1.exe "/lustre/tmp/slurm/2182746/Gau-2420440.inp" -scrdir="/lustre/tmp/slurm/2182746/"
 Default CPUs for threads: 0-4,7-8,12-14,18-20,24-28,31-32,36-38,42-44
 Default is to use a total of  26 processors:
                               26 via shared-memory
                                1 via Linda
 Entering Link 1 = /opt/gaussian/g16-c01/g16/l1.exe PID=   2420441.
  
 Copyright (c) 1988-2019, Gaussian, Inc.  All Rights Reserved.
  
 This is part of the Gaussian(R) 16 program.  It is based on
 the Gaussian(R) 09 system (copyright 2009, Gaussian, Inc.),
 the Gaussian(R) 03 system (copyright 2003, Gaussian, Inc.),
 the Gaussian(R) 98 system (copyright 1998, Gaussian, Inc.),
 the Gaussian(R) 94 system (copyright 1995, Gaussian, Inc.),
 the Gaussian 92(TM) system (copyright 1992, Gaussian, Inc.),
 the Gaussian 90(TM) system (copyright 1990, Gaussian, Inc.),
 the Gaussian 88(TM) system (copyright 1988, Gaussian, Inc.),
 the Gaussian 86(TM) system (copyright 1986, Carnegie Mellon
 University), and the Gaussian 82(TM) system (copyright 1983,
 Carnegie Mellon University). Gaussian is a federally registered
 trademark of Gaussian, Inc.
  
 This software contains proprietary and confidential information,
 including trade secrets, belonging to Gaussian, Inc.
  
 This software is provided under written license and may be
 used, copied, transmitted, or stored only in accord with that
 written license.
  
 The following legend is applicable only to US Government
 contracts under FAR:
  
                    RESTRICTED RIGHTS LEGEND
  
 Use, reproduction and disclosure by the US Government is
 subject to restrictions as set forth in subparagraphs (a)
 and (c) of the Commercial Computer Software - Restricted
 Rights clause in FAR 52.227-19.
  
 Gaussian, Inc.
 340 Quinnipiac St., Bldg. 40, Wallingford CT 06492
  
  
 ---------------------------------------------------------------
 Warning -- This program may not be used in any manner that
 competes with the business of Gaussian, Inc. or will provide
 assistance to any competitor of Gaussian, Inc.  The licensee
 of this program is prohibited from giving any competitor of
 Gaussian, Inc. access to this program.  By using this program,
 the user acknowledges that Gaussian, Inc. is engaged in the
 business of creating and licensing software in the field of
 computational chemistry and represents and warrants to the
 licensee that it is not a competitor of Gaussian, Inc. and that
 it will not use this program in any manner prohibited above.
 ---------------------------------------------------------------
  

 Cite this work as:
 Gaussian 16, Revision C.01,
 M. J. Frisch, G. W. Trucks, H. B. Schlegel, G. E. Scuseria, 
 M. A. Robb, J. R. Cheeseman, G. Scalmani, V. Barone, 
 G. A. Petersson, H. Nakatsuji, X. Li, M. Caricato, A. V. Marenich, 
 J. Bloino, B. G. Janesko, R. Gomperts, B. Mennucci, H. P. Hratchian, 
 J. V. Ortiz, A. F. Izmaylov, J. L. Sonnenberg, D. Williams-Young, 
 F. Ding, F. Lipparini, F. Egidi, J. Goings, B. Peng, A. Petrone, 
 T. Henderson, D. Ranasinghe, V. G. Zakrzewski, J. Gao, N. Rega, 
 G. Zheng, W. Liang, M. Hada, M. Ehara, K. Toyota, R. Fukuda, 
 J. Hasegawa, M. Ishida, T. Nakajima, Y. Honda, O. Kitao, H. Nakai, 
 T. Vreven, K. Throssell, J. A. Montgomery, Jr., J. E. Peralta, 
 F. Ogliaro, M. J. Bearpark, J. J. Heyd, E. N. Brothers, K. N. Kudin, 
 V. N. Staroverov, T. A. Keith, R. Kobayashi, J. Normand, 
 K. Raghavachari, A. P. Rendell, J. C. Burant, S. S. Iyengar, 
 J. Tomasi, M. Cossi, J. M. Millam, M. Klene, C. Adamo, R. Cammi, 
 J. W. Ochterski, R. L. Martin, K. Morokuma, O. Farkas, 
 J. B. Foresman, and D. J. Fox, Gaussian, Inc., Wallingford CT, 2019.
 
 ******************************************
 Gaussian 16:  EM64L-G16RevC.01  3-Jul-2019
                 5-Dec-2023 
 ******************************************
 %nproc=26
 Will use up to   26 processors via shared memory.
 %mem=16GB
 %chk=/home/exlonk/in_progress/3975.chk
 ------------------------------
 #p MN15/6-311++G(d,p) opt freq
 ------------------------------
 1/18=20,19=15,26=3,38=1/1,3;
 2/9=110,12=2,17=6,18=5,40=1/2;
 3/5=4,6=6,7=1111,11=2,25=1,30=1,71=1,74=-73/1,2,3;
 4//1;
 5/5=2,38=5/2;
 6/7=2,8=2,9=2,10=2,28=1/1;
 7//1,2,3,16;
 1/18=20,19=15,26=3/3(2);
 2/9=110/2;
 99//99;
 2/9=110/2;
 3/5=4,6=6,7=1111,11=2,25=1,30=1,71=1,74=-73/1,2,3;
 4/5=5,16=3,69=1/1;
 5/5=2,38=5/2;
 7//1,2,3,16;
 1/18=20,19=15,26=3/3(-5);
 2/9=110/2;
 6/7=2,8=2,9=2,10=2,19=2,28=1/1;
 99/9=1/99;
 Leave Link    1 at Tue Dec  5 07:20:10 2023, MaxMem=  2147483648 cpu:               5.2 elap:               0.3
 (Enter /opt/gaussian/g16-c01/g16/l101.exe)
 ---------------
 name file: 3975
 ---------------
 Symbolic Z-matrix:
 Charge =  0 Multiplicity = 1
 S                     0.4083    2.6566    0.0387 
 O                     8.0499    3.1311    0.0881 
 O                     1.9353   -3.6028    0.7159 
 O                    -8.0702    2.522    -0.1286 
 O                    -2.7698   -3.1604   -0.9614 
 O                     11.1898   4.8192    0.0384 
 O                     0.1401   -5.1984    2.1814 
 O                    -11.5204   3.3759   -0.4094 
 O                    -2.2909   -6.5964   -1.7831 
 C                     1.4795    1.4579    0.5398 
 C                    -0.9104    1.7006    0.567 
 C                     0.9214    0.3678    1.0863 
 C                    -0.4969    0.5024    1.1066 
 C                     2.9162    1.7028    0.3424 
 C                    -2.2252    2.1894    0.4132 
 C                     3.8508    0.7626    0.1044 
 C                    -3.387     1.4593    0.2441 
 C                     7.711     1.918    -0.3987 
 C                     2.8524   -3.1627   -0.1726 
 C                    -6.978     3.316    -0.1389 
 C                    -3.1804   -2.5949    0.1944 
 C                     8.7698    1.293    -0.9865 
 C                     3.2605   -4.1548   -1.0136 
 C                    -7.3073    4.6307   -0.2815 
 C                    -3.4354   -3.5292    1.1535 
 C                     5.2067    1.1731   -0.0714 
 C                     3.5178   -0.6217    0.002 
 C                    -4.6472    2.1161    0.1094 
 C                    -3.3335    0.033     0.226 
 C                     9.3689    3.2912   -0.196 
 C                     1.7482   -4.9194    0.4372 
 C                    -9.136     3.3531   -0.2692 
 C                    -2.7609   -4.5006   -0.7381 
 C                     9.8582    2.1883   -0.8565 
 C                     2.5404   -5.3072   -0.6183 
 C                    -8.7196    4.6603   -0.3674 
 C                    -3.1623   -4.7788    0.5477 
 C                     6.3491    1.5134   -0.2205 
 C                     3.2236   -1.7835   -0.0808 
 C                    -5.7104    2.664    -0.004 
 C                    -3.2739   -1.1667    0.2117 
 C                     9.9963    4.5017    0.2111 
 C                     0.8179   -5.6437    1.2339 
 C                    -10.4352   2.7732   -0.2907 
 C                    -2.3611   -5.3516   -1.8061 
 H                     1.4269   -0.4778    1.5297 
 H                    -1.1346   -0.2374    1.5683 
 H                     3.2255    2.7482    0.3689 
 H                    -2.3353    3.275     0.3955 
 H                     8.775     0.3183   -1.4535 
 H                     3.9828   -4.0756   -1.8138 
 H                    -6.6303    5.4723   -0.3207 
 H                    -3.7743   -3.3508    2.1642 
 H                     10.8716   2.0428   -1.203 
 H                     2.595    -6.2957   -1.0522 
 H                    -9.3509    5.5296   -0.486 
 H                    -3.2477   -5.7579    0.9975 
 H                     9.3371    5.2174    0.7327 
 H                     0.701    -6.7077    0.9641 
 H                    -10.4582   1.6741   -0.1895 
 H                    -2.0883   -4.8316   -2.741 
 
 ITRead=  0  0  0  0  0  0  0  0  0  0  0  0  0  0  0  0  0  0  0  0
 ITRead=  0  0  0  0  0  0  0  0  0  0  0  0  0  0  0  0  0  0  0  0
 ITRead=  0  0  0  0  0  0  0  0  0  0  0  0  0  0  0  0  0  0  0  0
 ITRead=  0
 MicOpt= -1 -1 -1 -1 -1 -1 -1 -1 -1 -1 -1 -1 -1 -1 -1 -1 -1 -1 -1 -1
 MicOpt= -1 -1 -1 -1 -1 -1 -1 -1 -1 -1 -1 -1 -1 -1 -1 -1 -1 -1 -1 -1
 MicOpt= -1 -1 -1 -1 -1 -1 -1 -1 -1 -1 -1 -1 -1 -1 -1 -1 -1 -1 -1 -1
 MicOpt= -1
 NAtoms=     61 NQM=       61 NQMF=       0 NMMI=      0 NMMIF=      0
                NMic=       0 NMicF=      0.
                    Isotopes and Nuclear Properties:
 (Nuclear quadrupole moments (NQMom) in fm**2, nuclear magnetic moments (NMagM)
  in nuclear magnetons)

  Atom         1           2           3           4           5           6           7           8           9          10
 IAtWgt=          32          16          16          16          16          16          16          16          16          12
 AtmWgt=  31.9720718  15.9949146  15.9949146  15.9949146  15.9949146  15.9949146  15.9949146  15.9949146  15.9949146  12.0000000
 NucSpn=           0           0           0           0           0           0           0           0           0           0
 AtZEff=  -0.0000000  -0.0000000  -0.0000000  -0.0000000  -0.0000000  -0.0000000  -0.0000000  -0.0000000  -0.0000000  -0.0000000
 NQMom=    0.0000000   0.0000000   0.0000000   0.0000000   0.0000000   0.0000000   0.0000000   0.0000000   0.0000000   0.0000000
 NMagM=    0.0000000   0.0000000   0.0000000   0.0000000   0.0000000   0.0000000   0.0000000   0.0000000   0.0000000   0.0000000
 AtZNuc=  16.0000000   8.0000000   8.0000000   8.0000000   8.0000000   8.0000000   8.0000000   8.0000000   8.0000000   6.0000000

  Atom        11          12          13          14          15          16          17          18          19          20
 IAtWgt=          12          12          12          12          12          12          12          12          12          12
 AtmWgt=  12.0000000  12.0000000  12.0000000  12.0000000  12.0000000  12.0000000  12.0000000  12.0000000  12.0000000  12.0000000
 NucSpn=           0           0           0           0           0           0           0           0           0           0
 AtZEff=  -0.0000000  -0.0000000  -0.0000000  -0.0000000  -0.0000000  -0.0000000  -0.0000000  -0.0000000  -0.0000000  -0.0000000
 NQMom=    0.0000000   0.0000000   0.0000000   0.0000000   0.0000000   0.0000000   0.0000000   0.0000000   0.0000000   0.0000000
 NMagM=    0.0000000   0.0000000   0.0000000   0.0000000   0.0000000   0.0000000   0.0000000   0.0000000   0.0000000   0.0000000
 AtZNuc=   6.0000000   6.0000000   6.0000000   6.0000000   6.0000000   6.0000000   6.0000000   6.0000000   6.0000000   6.0000000

  Atom        21          22          23          24          25          26          27          28          29          30
 IAtWgt=          12          12          12          12          12          12          12          12          12          12
 AtmWgt=  12.0000000  12.0000000  12.0000000  12.0000000  12.0000000  12.0000000  12.0000000  12.0000000  12.0000000  12.0000000
 NucSpn=           0           0           0           0           0           0           0           0           0           0
 AtZEff=  -0.0000000  -0.0000000  -0.0000000  -0.0000000  -0.0000000  -0.0000000  -0.0000000  -0.0000000  -0.0000000  -0.0000000
 NQMom=    0.0000000   0.0000000   0.0000000   0.0000000   0.0000000   0.0000000   0.0000000   0.0000000   0.0000000   0.0000000
 NMagM=    0.0000000   0.0000000   0.0000000   0.0000000   0.0000000   0.0000000   0.0000000   0.0000000   0.0000000   0.0000000
 AtZNuc=   6.0000000   6.0000000   6.0000000   6.0000000   6.0000000   6.0000000   6.0000000   6.0000000   6.0000000   6.0000000

  Atom        31          32          33          34          35          36          37          38          39          40
 IAtWgt=          12          12          12          12          12          12          12          12          12          12
 AtmWgt=  12.0000000  12.0000000  12.0000000  12.0000000  12.0000000  12.0000000  12.0000000  12.0000000  12.0000000  12.0000000
 NucSpn=           0           0           0           0           0           0           0           0           0           0
 AtZEff=  -0.0000000  -0.0000000  -0.0000000  -0.0000000  -0.0000000  -0.0000000  -0.0000000  -0.0000000  -0.0000000  -0.0000000
 NQMom=    0.0000000   0.0000000   0.0000000   0.0000000   0.0000000   0.0000000   0.0000000   0.0000000   0.0000000   0.0000000
 NMagM=    0.0000000   0.0000000   0.0000000   0.0000000   0.0000000   0.0000000   0.0000000   0.0000000   0.0000000   0.0000000
 AtZNuc=   6.0000000   6.0000000   6.0000000   6.0000000   6.0000000   6.0000000   6.0000000   6.0000000   6.0000000   6.0000000

  Atom        41          42          43          44          45          46          47          48          49          50
 IAtWgt=          12          12          12          12          12           1           1           1           1           1
 AtmWgt=  12.0000000  12.0000000  12.0000000  12.0000000  12.0000000   1.0078250   1.0078250   1.0078250   1.0078250   1.0078250
 NucSpn=           0           0           0           0           0           1           1           1           1           1
 AtZEff=  -0.0000000  -0.0000000  -0.0000000  -0.0000000  -0.0000000  -0.0000000  -0.0000000  -0.0000000  -0.0000000  -0.0000000
 NQMom=    0.0000000   0.0000000   0.0000000   0.0000000   0.0000000   0.0000000   0.0000000   0.0000000   0.0000000   0.0000000
 NMagM=    0.0000000   0.0000000   0.0000000   0.0000000   0.0000000   2.7928460   2.7928460   2.7928460   2.7928460   2.7928460
 AtZNuc=   6.0000000   6.0000000   6.0000000   6.0000000   6.0000000   1.0000000   1.0000000   1.0000000   1.0000000   1.0000000

  Atom        51          52          53          54          55          56          57          58          59          60
 IAtWgt=           1           1           1           1           1           1           1           1           1           1
 AtmWgt=   1.0078250   1.0078250   1.0078250   1.0078250   1.0078250   1.0078250   1.0078250   1.0078250   1.0078250   1.0078250
 NucSpn=           1           1           1           1           1           1           1           1           1           1
 AtZEff=  -0.0000000  -0.0000000  -0.0000000  -0.0000000  -0.0000000  -0.0000000  -0.0000000  -0.0000000  -0.0000000  -0.0000000
 NQMom=    0.0000000   0.0000000   0.0000000   0.0000000   0.0000000   0.0000000   0.0000000   0.0000000   0.0000000   0.0000000
 NMagM=    2.7928460   2.7928460   2.7928460   2.7928460   2.7928460   2.7928460   2.7928460   2.7928460   2.7928460   2.7928460
 AtZNuc=   1.0000000   1.0000000   1.0000000   1.0000000   1.0000000   1.0000000   1.0000000   1.0000000   1.0000000   1.0000000

  Atom        61
 IAtWgt=           1
 AtmWgt=   1.0078250
 NucSpn=           1
 AtZEff=  -0.0000000
 NQMom=    0.0000000
 NMagM=    2.7928460
 AtZNuc=   1.0000000
 Leave Link  101 at Tue Dec  5 07:20:10 2023, MaxMem=  2147483648 cpu:              10.0 elap:               0.6
 (Enter /opt/gaussian/g16-c01/g16/l103.exe)

 GradGradGradGradGradGradGradGradGradGradGradGradGradGradGradGradGradGrad
 Berny optimization.
 Initialization pass.
                           ----------------------------
                           !    Initial Parameters    !
                           ! (Angstroms and Degrees)  !
 --------------------------                            --------------------------
 ! Name  Definition              Value          Derivative Info.                !
 --------------------------------------------------------------------------------
 ! R1    R(1,10)                 1.6839         estimate D2E/DX2                !
 ! R2    R(1,11)                 1.7123         estimate D2E/DX2                !
 ! R3    R(2,18)                 1.3503         estimate D2E/DX2                !
 ! R4    R(2,30)                 1.3587         estimate D2E/DX2                !
 ! R5    R(3,19)                 1.3506         estimate D2E/DX2                !
 ! R6    R(3,31)                 1.3587         estimate D2E/DX2                !
 ! R7    R(4,20)                 1.3503         estimate D2E/DX2                !
 ! R8    R(4,32)                 1.3588         estimate D2E/DX2                !
 ! R9    R(5,21)                 1.3507         estimate D2E/DX2                !
 ! R10   R(5,33)                 1.3587         estimate D2E/DX2                !
 ! R11   R(6,42)                 1.247          estimate D2E/DX2                !
 ! R12   R(7,43)                 1.2472         estimate D2E/DX2                !
 ! R13   R(8,44)                 1.247          estimate D2E/DX2                !
 ! R14   R(9,45)                 1.247          estimate D2E/DX2                !
 ! R15   R(10,12)                1.3411         estimate D2E/DX2                !
 ! R16   R(10,14)                1.4707         estimate D2E/DX2                !
 ! R17   R(11,13)                1.3776         estimate D2E/DX2                !
 ! R18   R(11,15)                1.4111         estimate D2E/DX2                !
 ! R19   R(12,13)                1.4248         estimate D2E/DX2                !
 ! R20   R(12,46)                1.0804         estimate D2E/DX2                !
 ! R21   R(13,47)                1.0803         estimate D2E/DX2                !
 ! R22   R(14,16)                1.3469         estimate D2E/DX2                !
 ! R23   R(14,48)                1.0905         estimate D2E/DX2                !
 ! R24   R(15,17)                1.3825         estimate D2E/DX2                !
 ! R25   R(15,49)                1.0913         estimate D2E/DX2                !
 ! R26   R(16,26)                1.4275         estimate D2E/DX2                !
 ! R27   R(16,27)                1.4275         estimate D2E/DX2                !
 ! R28   R(17,28)                1.4275         estimate D2E/DX2                !
 ! R29   R(17,29)                1.4274         estimate D2E/DX2                !
 ! R30   R(18,22)                1.3628         estimate D2E/DX2                !
 ! R31   R(18,38)                1.4319         estimate D2E/DX2                !
 ! R32   R(19,23)                1.3631         estimate D2E/DX2                !
 ! R33   R(19,39)                1.4312         estimate D2E/DX2                !
 ! R34   R(20,24)                1.3628         estimate D2E/DX2                !
 ! R35   R(20,40)                1.4318         estimate D2E/DX2                !
 ! R36   R(21,25)                1.363          estimate D2E/DX2                !
 ! R37   R(21,41)                1.4314         estimate D2E/DX2                !
 ! R38   R(22,34)                1.4153         estimate D2E/DX2                !
 ! R39   R(22,50)                1.0808         estimate D2E/DX2                !
 ! R40   R(23,35)                1.4152         estimate D2E/DX2                !
 ! R41   R(23,51)                1.0809         estimate D2E/DX2                !
 ! R42   R(24,36)                1.4152         estimate D2E/DX2                !
 ! R43   R(24,52)                1.0808         estimate D2E/DX2                !
 ! R44   R(25,37)                1.4153         estimate D2E/DX2                !
 ! R45   R(25,53)                1.0808         estimate D2E/DX2                !
 ! R46   R(26,38)                1.2013         estimate D2E/DX2                !
 ! R47   R(27,39)                1.2013         estimate D2E/DX2                !
 ! R48   R(28,40)                1.2014         estimate D2E/DX2                !
 ! R49   R(29,41)                1.2013         estimate D2E/DX2                !
 ! R50   R(30,34)                1.3755         estimate D2E/DX2                !
 ! R51   R(30,42)                1.4229         estimate D2E/DX2                !
 ! R52   R(31,35)                1.3755         estimate D2E/DX2                !
 ! R53   R(31,43)                1.423          estimate D2E/DX2                !
 ! R54   R(32,36)                1.3754         estimate D2E/DX2                !
 ! R55   R(32,44)                1.4229         estimate D2E/DX2                !
 ! R56   R(33,37)                1.3754         estimate D2E/DX2                !
 ! R57   R(33,45)                1.4229         estimate D2E/DX2                !
 ! R58   R(34,54)                1.0808         estimate D2E/DX2                !
 ! R59   R(35,55)                1.0809         estimate D2E/DX2                !
 ! R60   R(36,56)                1.0809         estimate D2E/DX2                !
 ! R61   R(37,57)                1.0809         estimate D2E/DX2                !
 ! R62   R(42,58)                1.104          estimate D2E/DX2                !
 ! R63   R(43,59)                1.1039         estimate D2E/DX2                !
 ! R64   R(44,60)                1.104          estimate D2E/DX2                !
 ! R65   R(45,61)                1.104          estimate D2E/DX2                !
 ! A1    A(10,1,11)             90.0378         estimate D2E/DX2                !
 ! A2    A(18,2,30)            105.9092         estimate D2E/DX2                !
 ! A3    A(19,3,31)            105.9212         estimate D2E/DX2                !
 ! A4    A(20,4,32)            105.9012         estimate D2E/DX2                !
 ! A5    A(21,5,33)            105.9226         estimate D2E/DX2                !
 ! A6    A(1,10,12)            115.7967         estimate D2E/DX2                !
 ! A7    A(1,10,14)            117.5777         estimate D2E/DX2                !
 ! A8    A(12,10,14)           126.6255         estimate D2E/DX2                !
 ! A9    A(1,11,13)            112.042          estimate D2E/DX2                !
 ! A10   A(1,11,15)            119.376          estimate D2E/DX2                !
 ! A11   A(13,11,15)           128.582          estimate D2E/DX2                !
 ! A12   A(10,12,13)           110.0765         estimate D2E/DX2                !
 ! A13   A(10,12,46)           127.4998         estimate D2E/DX2                !
 ! A14   A(13,12,46)           122.2662         estimate D2E/DX2                !
 ! A15   A(11,13,12)           112.047          estimate D2E/DX2                !
 ! A16   A(11,13,47)           125.8609         estimate D2E/DX2                !
 ! A17   A(12,13,47)           121.9363         estimate D2E/DX2                !
 ! A18   A(10,14,16)           125.8257         estimate D2E/DX2                !
 ! A19   A(10,14,48)           115.6854         estimate D2E/DX2                !
 ! A20   A(16,14,48)           118.4675         estimate D2E/DX2                !
 ! A21   A(11,15,17)           127.8343         estimate D2E/DX2                !
 ! A22   A(11,15,49)           116.1259         estimate D2E/DX2                !
 ! A23   A(17,15,49)           116.0119         estimate D2E/DX2                !
 ! A24   A(14,16,26)           118.6922         estimate D2E/DX2                !
 ! A25   A(14,16,27)           121.8535         estimate D2E/DX2                !
 ! A26   A(26,16,27)           119.4458         estimate D2E/DX2                !
 ! A27   A(15,17,28)           120.6927         estimate D2E/DX2                !
 ! A28   A(15,17,29)           119.8497         estimate D2E/DX2                !
 ! A29   A(28,17,29)           119.4491         estimate D2E/DX2                !
 ! A30   A(2,18,22)            111.8703         estimate D2E/DX2                !
 ! A31   A(2,18,38)            116.5958         estimate D2E/DX2                !
 ! A32   A(22,18,38)           131.5339         estimate D2E/DX2                !
 ! A33   A(3,19,23)            111.839          estimate D2E/DX2                !
 ! A34   A(3,19,39)            116.6102         estimate D2E/DX2                !
 ! A35   A(23,19,39)           131.5508         estimate D2E/DX2                !
 ! A36   A(4,20,24)            111.8761         estimate D2E/DX2                !
 ! A37   A(4,20,40)            116.5891         estimate D2E/DX2                !
 ! A38   A(24,20,40)           131.5347         estimate D2E/DX2                !
 ! A39   A(5,21,25)            111.8406         estimate D2E/DX2                !
 ! A40   A(5,21,41)            116.6131         estimate D2E/DX2                !
 ! A41   A(25,21,41)           131.5463         estimate D2E/DX2                !
 ! A42   A(18,22,34)           105.5303         estimate D2E/DX2                !
 ! A43   A(18,22,50)           127.1351         estimate D2E/DX2                !
 ! A44   A(34,22,50)           127.3346         estimate D2E/DX2                !
 ! A45   A(19,23,35)           105.5446         estimate D2E/DX2                !
 ! A46   A(19,23,51)           127.1202         estimate D2E/DX2                !
 ! A47   A(35,23,51)           127.3352         estimate D2E/DX2                !
 ! A48   A(20,24,36)           105.5254         estimate D2E/DX2                !
 ! A49   A(20,24,52)           127.1305         estimate D2E/DX2                !
 ! A50   A(36,24,52)           127.3441         estimate D2E/DX2                !
 ! A51   A(21,25,37)           105.5405         estimate D2E/DX2                !
 ! A52   A(21,25,53)           127.1226         estimate D2E/DX2                !
 ! A53   A(37,25,53)           127.3369         estimate D2E/DX2                !
 ! A54   A(2,30,34)            110.5636         estimate D2E/DX2                !
 ! A55   A(2,30,42)            117.9343         estimate D2E/DX2                !
 ! A56   A(34,30,42)           131.5021         estimate D2E/DX2                !
 ! A57   A(3,31,35)            110.5657         estimate D2E/DX2                !
 ! A58   A(3,31,43)            117.9315         estimate D2E/DX2                !
 ! A59   A(35,31,43)           131.5028         estimate D2E/DX2                !
 ! A60   A(4,32,36)            110.5619         estimate D2E/DX2                !
 ! A61   A(4,32,44)            117.9341         estimate D2E/DX2                !
 ! A62   A(36,32,44)           131.504          estimate D2E/DX2                !
 ! A63   A(5,33,37)            110.563          estimate D2E/DX2                !
 ! A64   A(5,33,45)            117.9312         estimate D2E/DX2                !
 ! A65   A(37,33,45)           131.5058         estimate D2E/DX2                !
 ! A66   A(22,34,30)           106.1266         estimate D2E/DX2                !
 ! A67   A(22,34,54)           127.3323         estimate D2E/DX2                !
 ! A68   A(30,34,54)           126.5411         estimate D2E/DX2                !
 ! A69   A(23,35,31)           106.1296         estimate D2E/DX2                !
 ! A70   A(23,35,55)           127.3617         estimate D2E/DX2                !
 ! A71   A(31,35,55)           126.5087         estimate D2E/DX2                !
 ! A72   A(24,36,32)           106.1353         estimate D2E/DX2                !
 ! A73   A(24,36,56)           127.3254         estimate D2E/DX2                !
 ! A74   A(32,36,56)           126.5393         estimate D2E/DX2                !
 ! A75   A(25,37,33)           106.1334         estimate D2E/DX2                !
 ! A76   A(25,37,57)           127.3315         estimate D2E/DX2                !
 ! A77   A(33,37,57)           126.5351         estimate D2E/DX2                !
 ! A78   A(6,42,30)            126.7967         estimate D2E/DX2                !
 ! A79   A(6,42,58)            118.154          estimate D2E/DX2                !
 ! A80   A(30,42,58)           115.0492         estimate D2E/DX2                !
 ! A81   A(7,43,31)            126.7929         estimate D2E/DX2                !
 ! A82   A(7,43,59)            118.1821         estimate D2E/DX2                !
 ! A83   A(31,43,59)           115.025          estimate D2E/DX2                !
 ! A84   A(8,44,32)            126.8022         estimate D2E/DX2                !
 ! A85   A(8,44,60)            118.1497         estimate D2E/DX2                !
 ! A86   A(32,44,60)           115.048          estimate D2E/DX2                !
 ! A87   A(9,45,33)            126.7979         estimate D2E/DX2                !
 ! A88   A(9,45,61)            118.1569         estimate D2E/DX2                !
 ! A89   A(33,45,61)           115.0451         estimate D2E/DX2                !
 ! A90   L(16,26,38,51,-1)     179.7451         estimate D2E/DX2                !
 ! A91   L(16,27,39,4,-1)      179.3194         estimate D2E/DX2                !
 ! A92   L(17,28,40,53,-1)     179.7552         estimate D2E/DX2                !
 ! A93   L(17,29,41,2,-1)      179.3049         estimate D2E/DX2                !
 ! A94   L(18,38,26,51,-1)     179.9541         estimate D2E/DX2                !
 ! A95   L(19,39,27,4,-1)      179.1515         estimate D2E/DX2                !
 ! A96   L(20,40,28,57,-1)     179.9556         estimate D2E/DX2                !
 ! A97   L(21,41,29,2,-1)      179.0984         estimate D2E/DX2                !
 ! A98   L(16,26,38,51,-2)     180.0569         estimate D2E/DX2                !
 ! A99   L(16,27,39,4,-2)      180.17           estimate D2E/DX2                !
 ! A100  L(17,28,40,53,-2)     180.1197         estimate D2E/DX2                !
 ! A101  L(17,29,41,2,-2)      179.9439         estimate D2E/DX2                !
 ! A102  L(18,38,26,51,-2)     180.0013         estimate D2E/DX2                !
 ! A103  L(19,39,27,4,-2)      179.7141         estimate D2E/DX2                !
 ! A104  L(20,40,28,57,-2)     180.0096         estimate D2E/DX2                !
 ! A105  L(21,41,29,2,-2)      180.0027         estimate D2E/DX2                !
 ! D1    D(11,1,10,12)          -0.0034         estimate D2E/DX2                !
 ! D2    D(11,1,10,14)        -179.881          estimate D2E/DX2                !
 ! D3    D(10,1,11,13)          -0.0083         estimate D2E/DX2                !
 ! D4    D(10,1,11,15)        -179.9391         estimate D2E/DX2                !
 ! D5    D(30,2,18,22)           0.007          estimate D2E/DX2                !
 ! D6    D(30,2,18,38)        -179.967          estimate D2E/DX2                !
 ! D7    D(18,2,30,34)          -0.0026         estimate D2E/DX2                !
 ! D8    D(18,2,30,42)        -179.9837         estimate D2E/DX2                !
 ! D9    D(31,3,19,23)           0.0068         estimate D2E/DX2                !
 ! D10   D(31,3,19,39)        -179.9683         estimate D2E/DX2                !
 ! D11   D(19,3,31,35)          -0.0021         estimate D2E/DX2                !
 ! D12   D(19,3,31,43)        -179.9881         estimate D2E/DX2                !
 ! D13   D(32,4,20,24)           0.0038         estimate D2E/DX2                !
 ! D14   D(32,4,20,40)        -179.9663         estimate D2E/DX2                !
 ! D15   D(20,4,32,36)           0.0018         estimate D2E/DX2                !
 ! D16   D(20,4,32,44)        -179.9796         estimate D2E/DX2                !
 ! D17   D(33,5,21,25)           0.0124         estimate D2E/DX2                !
 ! D18   D(33,5,21,41)        -179.9602         estimate D2E/DX2                !
 ! D19   D(21,5,33,37)          -0.0066         estimate D2E/DX2                !
 ! D20   D(21,5,33,45)        -179.9828         estimate D2E/DX2                !
 ! D21   D(1,10,12,13)           0.0136         estimate D2E/DX2                !
 ! D22   D(1,10,12,46)        -175.461          estimate D2E/DX2                !
 ! D23   D(14,10,12,13)        179.8784         estimate D2E/DX2                !
 ! D24   D(14,10,12,46)          4.4039         estimate D2E/DX2                !
 ! D25   D(1,10,14,16)        -148.808          estimate D2E/DX2                !
 ! D26   D(1,10,14,48)          29.4748         estimate D2E/DX2                !
 ! D27   D(12,10,14,16)         31.3293         estimate D2E/DX2                !
 ! D28   D(12,10,14,48)       -150.3879         estimate D2E/DX2                !
 ! D29   D(1,11,13,12)           0.0174         estimate D2E/DX2                !
 ! D30   D(1,11,13,47)         175.5273         estimate D2E/DX2                !
 ! D31   D(15,11,13,12)        179.9402         estimate D2E/DX2                !
 ! D32   D(15,11,13,47)         -4.5498         estimate D2E/DX2                !
 ! D33   D(1,11,15,17)         151.2473         estimate D2E/DX2                !
 ! D34   D(1,11,15,49)         -26.7422         estimate D2E/DX2                !
 ! D35   D(13,11,15,17)        -28.6706         estimate D2E/DX2                !
 ! D36   D(13,11,15,49)        153.3398         estimate D2E/DX2                !
 ! D37   D(10,12,13,11)         -0.0195         estimate D2E/DX2                !
 ! D38   D(10,12,13,47)       -175.7319         estimate D2E/DX2                !
 ! D39   D(46,12,13,11)        175.7351         estimate D2E/DX2                !
 ! D40   D(46,12,13,47)          0.0226         estimate D2E/DX2                !
 ! D41   D(10,14,16,26)        179.6679         estimate D2E/DX2                !
 ! D42   D(10,14,16,27)          0.7362         estimate D2E/DX2                !
 ! D43   D(48,14,16,26)          1.4282         estimate D2E/DX2                !
 ! D44   D(48,14,16,27)       -177.5035         estimate D2E/DX2                !
 ! D45   D(11,15,17,28)        179.6606         estimate D2E/DX2                !
 ! D46   D(11,15,17,29)          0.726          estimate D2E/DX2                !
 ! D47   D(49,15,17,28)         -2.3479         estimate D2E/DX2                !
 ! D48   D(49,15,17,29)        178.7176         estimate D2E/DX2                !
 ! D49   D(14,16,18,2)          20.2746         estimate D2E/DX2                !
 ! D50   D(14,16,18,22)       -159.7294         estimate D2E/DX2                !
 ! D51   D(27,16,18,2)        -160.786          estimate D2E/DX2                !
 ! D52   D(27,16,18,22)         19.2099         estimate D2E/DX2                !
 ! D53   D(14,16,19,3)         -40.4995         estimate D2E/DX2                !
 ! D54   D(14,16,19,23)        138.8924         estimate D2E/DX2                !
 ! D55   D(26,16,19,3)         140.4943         estimate D2E/DX2                !
 ! D56   D(26,16,19,23)        -40.1138         estimate D2E/DX2                !
 ! D57   D(15,17,20,4)        -171.8432         estimate D2E/DX2                !
 ! D58   D(15,17,20,24)          8.1951         estimate D2E/DX2                !
 ! D59   D(29,17,20,4)           7.0758         estimate D2E/DX2                !
 ! D60   D(29,17,20,24)       -172.8859         estimate D2E/DX2                !
 ! D61   D(15,17,21,5)         -79.2873         estimate D2E/DX2                !
 ! D62   D(15,17,21,25)         99.6482         estimate D2E/DX2                !
 ! D63   D(28,17,21,5)         101.684          estimate D2E/DX2                !
 ! D64   D(28,17,21,25)        -79.3805         estimate D2E/DX2                !
 ! D65   D(2,18,22,34)          -0.0085         estimate D2E/DX2                !
 ! D66   D(2,18,22,50)        -179.9973         estimate D2E/DX2                !
 ! D67   D(38,18,22,34)        179.9605         estimate D2E/DX2                !
 ! D68   D(38,18,22,50)         -0.0282         estimate D2E/DX2                !
 ! D69   D(3,19,23,35)          -0.0086         estimate D2E/DX2                !
 ! D70   D(3,19,23,51)         179.9954         estimate D2E/DX2                !
 ! D71   D(39,19,23,35)        179.9616         estimate D2E/DX2                !
 ! D72   D(39,19,23,51)         -0.0344         estimate D2E/DX2                !
 ! D73   D(4,20,24,36)          -0.0077         estimate D2E/DX2                !
 ! D74   D(4,20,24,52)        -179.9965         estimate D2E/DX2                !
 ! D75   D(40,20,24,36)        179.9566         estimate D2E/DX2                !
 ! D76   D(40,20,24,52)         -0.0322         estimate D2E/DX2                !
 ! D77   D(5,21,25,37)          -0.0131         estimate D2E/DX2                !
 ! D78   D(5,21,25,53)         179.9466         estimate D2E/DX2                !
 ! D79   D(41,21,25,37)        179.9542         estimate D2E/DX2                !
 ! D80   D(41,21,25,53)         -0.0862         estimate D2E/DX2                !
 ! D81   D(18,22,34,30)          0.0065         estimate D2E/DX2                !
 ! D82   D(18,22,34,54)       -179.9969         estimate D2E/DX2                !
 ! D83   D(50,22,34,30)        179.9952         estimate D2E/DX2                !
 ! D84   D(50,22,34,54)         -0.0082         estimate D2E/DX2                !
 ! D85   D(19,23,35,31)          0.0069         estimate D2E/DX2                !
 ! D86   D(19,23,35,55)        179.9806         estimate D2E/DX2                !
 ! D87   D(51,23,35,31)       -179.9971         estimate D2E/DX2                !
 ! D88   D(51,23,35,55)         -0.0234         estimate D2E/DX2                !
 ! D89   D(20,24,36,32)          0.0083         estimate D2E/DX2                !
 ! D90   D(20,24,36,56)        179.998          estimate D2E/DX2                !
 ! D91   D(52,24,36,32)        179.9971         estimate D2E/DX2                !
 ! D92   D(52,24,36,56)         -0.0133         estimate D2E/DX2                !
 ! D93   D(21,25,37,33)          0.0084         estimate D2E/DX2                !
 ! D94   D(21,25,37,57)        179.9209         estimate D2E/DX2                !
 ! D95   D(53,25,37,33)       -179.9511         estimate D2E/DX2                !
 ! D96   D(53,25,37,57)         -0.0386         estimate D2E/DX2                !
 ! D97   D(2,30,34,22)          -0.0025         estimate D2E/DX2                !
 ! D98   D(2,30,34,54)        -179.9991         estimate D2E/DX2                !
 ! D99   D(42,30,34,22)        179.9752         estimate D2E/DX2                !
 ! D100  D(42,30,34,54)         -0.0214         estimate D2E/DX2                !
 ! D101  D(2,30,42,6)          179.9072         estimate D2E/DX2                !
 ! D102  D(2,30,42,58)          -0.0376         estimate D2E/DX2                !
 ! D103  D(34,30,42,6)          -0.0692         estimate D2E/DX2                !
 ! D104  D(34,30,42,58)        179.986          estimate D2E/DX2                !
 ! D105  D(3,31,35,23)          -0.003          estimate D2E/DX2                !
 ! D106  D(3,31,35,55)        -179.977          estimate D2E/DX2                !
 ! D107  D(43,31,35,23)        179.9805         estimate D2E/DX2                !
 ! D108  D(43,31,35,55)          0.0064         estimate D2E/DX2                !
 ! D109  D(3,31,43,7)           -0.0841         estimate D2E/DX2                !
 ! D110  D(3,31,43,59)         179.8107         estimate D2E/DX2                !
 ! D111  D(35,31,43,7)         179.9334         estimate D2E/DX2                !
 ! D112  D(35,31,43,59)         -0.1718         estimate D2E/DX2                !
 ! D113  D(4,32,36,24)          -0.0064         estimate D2E/DX2                !
 ! D114  D(4,32,36,56)        -179.9961         estimate D2E/DX2                !
 ! D115  D(44,32,36,24)        179.9717         estimate D2E/DX2                !
 ! D116  D(44,32,36,56)         -0.018          estimate D2E/DX2                !
 ! D117  D(4,32,44,8)          179.9119         estimate D2E/DX2                !
 ! D118  D(4,32,44,60)          -0.0496         estimate D2E/DX2                !
 ! D119  D(36,32,44,8)          -0.065          estimate D2E/DX2                !
 ! D120  D(36,32,44,60)        179.9736         estimate D2E/DX2                !
 ! D121  D(5,33,37,25)          -0.0012         estimate D2E/DX2                !
 ! D122  D(5,33,37,57)        -179.9146         estimate D2E/DX2                !
 ! D123  D(45,33,37,25)        179.9707         estimate D2E/DX2                !
 ! D124  D(45,33,37,57)          0.0573         estimate D2E/DX2                !
 ! D125  D(5,33,45,9)          179.899          estimate D2E/DX2                !
 ! D126  D(5,33,45,61)          -0.0059         estimate D2E/DX2                !
 ! D127  D(37,33,45,9)          -0.0713         estimate D2E/DX2                !
 ! D128  D(37,33,45,61)       -179.9762         estimate D2E/DX2                !
 --------------------------------------------------------------------------------
 Trust Radius=3.00D-01 FncErr=1.00D-07 GrdErr=1.00D-06 EigMax=2.50D+02 EigMin=1.00D-04
 Number of steps in this run=    308 maximum allowed number of steps=    366.
 GradGradGradGradGradGradGradGradGradGradGradGradGradGradGradGradGradGrad

 Leave Link  103 at Tue Dec  5 07:20:11 2023, MaxMem=  2147483648 cpu:               4.2 elap:               0.3
 (Enter /opt/gaussian/g16-c01/g16/l202.exe)
 Stoichiometry    C36H16O8S
 Framework group  C1[X(C36H16O8S)]
 Deg. of freedom   177
 Full point group                 C1      NOp   1
 Largest Abelian subgroup         C1      NOp   1
 Largest concise Abelian subgroup C1      NOp   1
                         Standard orientation:                         
 ---------------------------------------------------------------------
 Center     Atomic      Atomic             Coordinates (Angstroms)
 Number     Number       Type             X           Y           Z
 ---------------------------------------------------------------------
      1         16           0       -0.432740   -2.615620    0.036498
      2          8           0       -8.078118   -3.025381    0.080536
      3          8           0       -1.907031    3.655439    0.722573
      4          8           0        8.046698   -2.552660   -0.125465
      5          8           0        2.795184    3.175774   -0.952573
      6          8           0      -11.232187   -4.686715    0.026295
      7          8           0       -0.099273    5.233470    2.191654
      8          8           0       11.489707   -3.435348   -0.405515
      9          8           0        2.345942    6.616989   -1.769182
     10          6           0       -1.494048   -1.408663    0.538827
     11          6           0        0.893691   -1.671663    0.567092
     12          6           0       -0.927063   -0.324189    1.087370
     13          6           0        0.490032   -0.470843    1.108316
     14          6           0       -2.932650   -1.641063    0.340175
     15          6           0        2.204394   -2.171354    0.413321
     16          6           0       -3.859098   -0.692602    0.103082
     17          6           0        3.372447   -1.450869    0.246067
     18          6           0       -7.728644   -1.814440   -0.404160
     19          6           0       -2.827281    3.224518   -0.167169
     20          6           0        6.947811   -3.337353   -0.137668
     21          6           0        3.200260    2.605010    0.202589
     22          6           0       -8.781743   -1.179568   -0.991621
     23          6           0       -3.226434    4.221354   -1.006862
     24          6           0        7.266040   -4.654574   -0.282127
     25          6           0        3.462580    3.535616    1.163304
     26          6           0       -5.218321   -1.091314   -0.074180
     27          6           0       -3.514309    0.688983    0.003051
     28          6           0        4.627116   -2.118121    0.111101
     29          6           0        3.331054   -0.024140    0.230167
     30          6           0       -9.398252   -3.173847   -0.204612
     31          6           0       -1.708602    4.970838    0.446048
     32          6           0        9.105499   -3.392548   -0.266721
     33          6           0        2.797510    4.515651   -0.727180
     34          6           0       -9.877775   -2.065808   -0.863680
     35          6           0       -2.496834    5.366988   -0.609323
     36          6           0        8.678092   -4.696015   -0.367219
     37          6           0        3.200460    4.788431    0.559296
     38          6           0       -6.363473   -1.421682   -0.224503
     39          6           0       -3.210218    1.848374   -0.077753
     40          6           0        5.685702   -2.674839   -0.002514
     41          6           0        3.281637    1.176043    0.217710
     42          6           0      -10.036145   -4.379617    0.200213
     43          6           0       -0.772687    5.685980    1.244443
     44          6           0       10.409583   -2.823653   -0.286528
     45          6           0        2.405600    5.371676   -1.794088
     46          1           0       -1.425649    0.524974    1.531787
     47          1           0        1.133697    0.262802    1.571559
     48          1           0       -3.250819   -2.683843    0.364851
     49          1           0        2.305297   -3.257819    0.393989
     50          1           0       -8.778390   -0.204131   -1.457097
     51          1           0       -3.948885    4.149531   -1.807621
     52          1           0        6.581953   -5.490341   -0.323053
     53          1           0        3.799331    3.352772    2.173928
     54          1           0      -10.889691   -1.911179   -1.210565
     55          1           0       -2.542782    6.356592   -1.041708
     56          1           0        9.302071   -5.570451   -0.486798
     57          1           0        3.293880    5.766069    1.010680
     58          1           0       -9.383359   -5.101694    0.721091
     59          1           0       -0.646603    6.749370    0.976379
     60          1           0       10.441838   -1.724947   -0.183594
     61          1           0        2.128978    4.855468   -2.729966
 ---------------------------------------------------------------------
 Rotational constants (GHZ):           0.0682643           0.0248430           0.0186933
 Leave Link  202 at Tue Dec  5 07:20:12 2023, MaxMem=  2147483648 cpu:               9.5 elap:               0.6
 (Enter /opt/gaussian/g16-c01/g16/l301.exe)
 Standard basis: 6-311++G(d,p) (5D, 7F)
 Ernie: Thresh=  0.10000D-02 Tol=  0.10000D-05 Strict=F.
 There are  1155 symmetry adapted cartesian basis functions of A   symmetry.
 There are  1110 symmetry adapted basis functions of A   symmetry.
  1110 basis functions,  1778 primitive gaussians,  1155 cartesian basis functions
   156 alpha electrons      156 beta electrons
       nuclear repulsion energy      4466.5040102524 Hartrees.
 IExCor= 7252 DFT=T Ex+Corr=MN15 ExCW=0 ScaHFX=  0.440000
 ScaDFX=  1.000000  1.000000  1.000000  1.000000 ScalE2=  1.000000  1.000000
 IRadAn=      5 IRanWt=     -1 IRanGd=            0 ICorTp=0 IEmpDi=  4
 NAtoms=   61 NActive=   61 NUniq=   61 SFac= 1.00D+00 NAtFMM=   60 NAOKFM=T Big=T
 Integral buffers will be    131072 words long.
 Raffenetti 2 integral format.
 Two-electron integral symmetry is turned on.
 Leave Link  301 at Tue Dec  5 07:20:12 2023, MaxMem=  2147483648 cpu:               5.6 elap:               0.4
 (Enter /opt/gaussian/g16-c01/g16/l302.exe)
 NPDir=0 NMtPBC=     1 NCelOv=     1 NCel=       1 NClECP=     1 NCelD=      1
         NCelK=      1 NCelE2=     1 NClLst=     1 CellRange=     0.0.
 One-electron integrals computed using PRISM.
 One-electron integral symmetry used in STVInt
 NBasis=  1110 RedAO= T EigKep=  2.03D-06  NBF=  1110
 NBsUse=  1091 1.00D-06 EigRej=  9.39D-07 NBFU=  1091
 Precomputing XC quadrature grid using
 IXCGrd= 4 IRadAn=           5 IRanWt=          -1 IRanGd=           0 AccXCQ= 0.00D+00.
 Generated NRdTot=       0 NPtTot=           0 NUsed=           0 NTot=          32
 NSgBfM=   997   996   996   996   997 MxSgAt=    61 MxSgA2=    61.
 Leave Link  302 at Tue Dec  5 07:20:15 2023, MaxMem=  2147483648 cpu:              71.6 elap:               3.0
 (Enter /opt/gaussian/g16-c01/g16/l303.exe)
 DipDrv:  MaxL=1.
 Leave Link  303 at Tue Dec  5 07:20:16 2023, MaxMem=  2147483648 cpu:              11.5 elap:               0.7
 (Enter /opt/gaussian/g16-c01/g16/l401.exe)
 ExpMin= 3.60D-02 ExpMax= 9.34D+04 ExpMxC= 3.17D+03 IAcc=3 IRadAn=         5 AccDes= 0.00D+00
 Harris functional with IExCor= 1009 and IRadAn=       5 diagonalized for initial guess.
 HarFok:  IExCor= 1009 AccDes= 0.00D+00 IRadAn=         5 IDoV= 1 UseB2=F ITyADJ=14
 ICtDFT=  3500011 ScaDFX=  1.000000  1.000000  1.000000  1.000000
 FoFCou: FMM=F IPFlag=           0 FMFlag=      100000 FMFlg1=        2001
         NFxFlg=           0 DoJE=T BraDBF=F KetDBF=T FulRan=T
         wScrn=  0.000000 ICntrl=       500 IOpCl=  0 I1Cent=   200000004 NGrid=           0
         NMat0=    1 NMatS0=      1 NMatT0=    0 NMatD0=    1 NMtDS0=    0 NMtDT0=    0
 Petite list used in FoFCou.
 Harris En= -2379.59533638119    
 JPrj=0 DoOrth=F DoCkMO=F.
 Leave Link  401 at Tue Dec  5 07:20:22 2023, MaxMem=  2147483648 cpu:             146.9 elap:               5.9
 (Enter /opt/gaussian/g16-c01/g16/l502.exe)
 Integral symmetry usage will be decided dynamically.
 Closed shell SCF:
 Using DIIS extrapolation, IDIIS=  1040.
 NGot=  2147483648 LenX=  2144773833 LenY=  2143438653
 Requested convergence on RMS density matrix=1.00D-08 within 128 cycles.
 Requested convergence on MAX density matrix=1.00D-06.
 Requested convergence on             energy=1.00D-06.
 No special actions if energy rises.
 Fock matrices will be formed incrementally for  20 cycles.

 Cycle   1  Pass 1  IDiag  1:
 FoFJK:  IHMeth= 1 ICntrl=       0 DoSepK=F KAlg= 0 I1Cent=           0 FoldK=F
 IRaf= 670000000 NMat=       1 IRICut=       1 DoRegI=T DoRafI=F ISym2E= 0 IDoP0=0 IntGTp=1.
 FoFCou: FMM=T IPFlag=           0 FMFlag=      100000 FMFlg1=        2001
         NFxFlg=           0 DoJE=F BraDBF=F KetDBF=F FulRan=T
         wScrn=  0.000000 ICntrl=         0 IOpCl=  0 I1Cent=           0 NGrid=           0
         NMat0=    1 NMatS0=      1 NMatT0=    0 NMatD0=    1 NMtDS0=    0 NMtDT0=    0
 Symmetry not used in FoFCou.
 FMM levels:  10  Number of levels for PrismC:   9
 E= -2378.26930634786    
 DIIS: error= 2.78D-02 at cycle   1 NSaved=   1.
 NSaved= 1 IEnMin= 1 EnMin= -2378.26930634786     IErMin= 1 ErrMin= 2.78D-02
 ErrMax= 2.78D-02  0.00D+00 EMaxC= 1.00D-01 BMatC= 1.48D+00 BMatP= 1.48D+00
 IDIUse=3 WtCom= 7.22D-01 WtEn= 2.78D-01
 Coeff-Com:  0.100D+01
 Coeff-En:   0.100D+01
 Coeff:      0.100D+01
 Gap=     0.100 Goal=   None    Shift=    0.000
 GapD=    0.100 DampG=0.500 DampE=0.500 DampFc=0.2500 IDamp=-1.
 Damping current iteration by 2.50D-01
 RMSDP=1.68D-02 MaxDP=2.10D+00              OVMax= 2.64D-01

 Cycle   2  Pass 1  IDiag  1:
 RMSU=  4.07D-03    CP:  9.65D-01
 E= -2378.58850099269     Delta-E=       -0.319194644838 Rises=F Damp=T
 DIIS: error= 1.28D-02 at cycle   2 NSaved=   2.
 NSaved= 2 IEnMin= 2 EnMin= -2378.58850099269     IErMin= 2 ErrMin= 1.28D-02
 ErrMax= 1.28D-02  0.00D+00 EMaxC= 1.00D-01 BMatC= 5.25D-01 BMatP= 1.48D+00
 IDIUse=3 WtCom= 8.72D-01 WtEn= 1.28D-01
 Coeff-Com: -0.916D+00 0.192D+01
 Coeff-En:   0.000D+00 0.100D+01
 Coeff:     -0.799D+00 0.180D+01
 Gap=     0.218 Goal=   None    Shift=    0.000
 RMSDP=1.18D-02 MaxDP=2.03D+00 DE=-3.19D-01 OVMax= 2.03D-01

 Cycle   3  Pass 1  IDiag  1:
 RMSU=  5.69D-03    CP:  6.40D-01  4.52D-01
 E= -2379.06065044007     Delta-E=       -0.472149447378 Rises=F Damp=F
 DIIS: error= 1.96D-02 at cycle   3 NSaved=   3.
 NSaved= 3 IEnMin= 3 EnMin= -2379.06065044007     IErMin= 2 ErrMin= 1.28D-02
 ErrMax= 1.96D-02  0.00D+00 EMaxC= 1.00D-01 BMatC= 1.66D-01 BMatP= 5.25D-01
 IDIUse=3 WtCom= 8.04D-01 WtEn= 1.96D-01
 Coeff-Com: -0.597D+00 0.989D+00 0.609D+00
 Coeff-En:   0.000D+00 0.000D+00 0.100D+01
 Coeff:     -0.480D+00 0.795D+00 0.685D+00
 Gap=     0.150 Goal=   None    Shift=    0.000
 RMSDP=2.60D-03 MaxDP=3.74D-01 DE=-4.72D-01 OVMax= 7.91D-02

 Cycle   4  Pass 1  IDiag  1:
 RMSU=  1.90D-03    CP:  5.86D-01  5.94D-01  9.71D-01
 E= -2379.14435875832     Delta-E=       -0.083708318253 Rises=F Damp=F
 DIIS: error= 1.34D-02 at cycle   4 NSaved=   4.
 NSaved= 4 IEnMin= 4 EnMin= -2379.14435875832     IErMin= 2 ErrMin= 1.28D-02
 ErrMax= 1.34D-02  0.00D+00 EMaxC= 1.00D-01 BMatC= 6.52D-02 BMatP= 1.66D-01
 IDIUse=3 WtCom= 8.66D-01 WtEn= 1.34D-01
 Coeff-Com: -0.149D+00 0.233D+00 0.418D+00 0.498D+00
 Coeff-En:   0.000D+00 0.000D+00 0.306D+00 0.694D+00
 Coeff:     -0.129D+00 0.202D+00 0.403D+00 0.524D+00
 Gap=     0.144 Goal=   None    Shift=    0.000
 RMSDP=7.89D-04 MaxDP=7.54D-02 DE=-8.37D-02 OVMax= 3.63D-02

 Cycle   5  Pass 1  IDiag  1:
 RMSU=  6.44D-04    CP:  5.87D-01  6.39D-01  9.38D-01  8.05D-01
 E= -2379.19173834415     Delta-E=       -0.047379585826 Rises=F Damp=F
 DIIS: error= 1.69D-03 at cycle   5 NSaved=   5.
 NSaved= 5 IEnMin= 5 EnMin= -2379.19173834415     IErMin= 5 ErrMin= 1.69D-03
 ErrMax= 1.69D-03  0.00D+00 EMaxC= 1.00D-01 BMatC= 3.55D-03 BMatP= 6.52D-02
 IDIUse=3 WtCom= 9.83D-01 WtEn= 1.69D-02
 Coeff-Com: -0.404D-01 0.619D-01 0.203D+00 0.320D+00 0.456D+00
 Coeff-En:   0.000D+00 0.000D+00 0.000D+00 0.000D+00 0.100D+01
 Coeff:     -0.397D-01 0.608D-01 0.200D+00 0.314D+00 0.465D+00
 Gap=     0.146 Goal=   None    Shift=    0.000
 RMSDP=4.26D-04 MaxDP=4.56D-02 DE=-4.74D-02 OVMax= 1.47D-02

 Cycle   6  Pass 1  IDiag  1:
 RMSU=  1.54D-04    CP:  5.90D-01  5.75D-01  9.62D-01  7.41D-01  6.44D-01
 E= -2379.19502353094     Delta-E=       -0.003285186789 Rises=F Damp=F
 DIIS: error= 2.53D-04 at cycle   6 NSaved=   6.
 NSaved= 6 IEnMin= 6 EnMin= -2379.19502353094     IErMin= 6 ErrMin= 2.53D-04
 ErrMax= 2.53D-04  0.00D+00 EMaxC= 1.00D-01 BMatC= 1.50D-04 BMatP= 3.55D-03
 IDIUse=3 WtCom= 9.97D-01 WtEn= 2.53D-03
 Coeff-Com: -0.505D-02 0.738D-02 0.577D-01 0.103D+00 0.220D+00 0.617D+00
 Coeff-En:   0.000D+00 0.000D+00 0.000D+00 0.000D+00 0.000D+00 0.100D+01
 Coeff:     -0.503D-02 0.736D-02 0.576D-01 0.103D+00 0.219D+00 0.618D+00
 Gap=     0.146 Goal=   None    Shift=    0.000
 RMSDP=9.21D-05 MaxDP=1.08D-02 DE=-3.29D-03 OVMax= 3.12D-03

 Cycle   7  Pass 1  IDiag  1:
 RMSU=  7.33D-05    CP:  5.90D-01  5.64D-01  9.65D-01  7.56D-01  6.57D-01
                    CP:  9.98D-01
 E= -2379.19513763546     Delta-E=       -0.000114104520 Rises=F Damp=F
 DIIS: error= 1.54D-04 at cycle   7 NSaved=   7.
 NSaved= 7 IEnMin= 7 EnMin= -2379.19513763546     IErMin= 7 ErrMin= 1.54D-04
 ErrMax= 1.54D-04  0.00D+00 EMaxC= 1.00D-01 BMatC= 5.11D-05 BMatP= 1.50D-04
 IDIUse=3 WtCom= 9.98D-01 WtEn= 1.54D-03
 Coeff-Com:  0.384D-02-0.625D-02 0.183D-02 0.907D-02 0.534D-01 0.394D+00
 Coeff-Com:  0.544D+00
 Coeff-En:   0.000D+00 0.000D+00 0.000D+00 0.000D+00 0.000D+00 0.213D+00
 Coeff-En:   0.787D+00
 Coeff:      0.383D-02-0.624D-02 0.183D-02 0.905D-02 0.533D-01 0.393D+00
 Coeff:      0.545D+00
 Gap=     0.146 Goal=   None    Shift=    0.000
 RMSDP=3.04D-05 MaxDP=2.50D-03 DE=-1.14D-04 OVMax= 1.79D-03

 Cycle   8  Pass 1  IDiag  1:
 RMSU=  2.40D-05    CP:  5.89D-01  5.65D-01  9.65D-01  7.60D-01  6.73D-01
                    CP:  1.06D+00  9.88D-01
 E= -2379.19518409054     Delta-E=       -0.000046455083 Rises=F Damp=F
 DIIS: error= 5.36D-05 at cycle   8 NSaved=   8.
 NSaved= 8 IEnMin= 8 EnMin= -2379.19518409054     IErMin= 8 ErrMin= 5.36D-05
 ErrMax= 5.36D-05  0.00D+00 EMaxC= 1.00D-01 BMatC= 7.04D-06 BMatP= 5.11D-05
 IDIUse=1 WtCom= 1.00D+00 WtEn= 0.00D+00
 Coeff-Com:  0.311D-02-0.490D-02-0.785D-02-0.121D-01-0.620D-02 0.128D+00
 Coeff-Com:  0.317D+00 0.583D+00
 Coeff:      0.311D-02-0.490D-02-0.785D-02-0.121D-01-0.620D-02 0.128D+00
 Coeff:      0.317D+00 0.583D+00
 Gap=     0.146 Goal=   None    Shift=    0.000
 RMSDP=1.54D-05 MaxDP=1.64D-03 DE=-4.65D-05 OVMax= 9.27D-04

 Cycle   9  Pass 1  IDiag  1:
 RMSU=  9.35D-06    CP:  5.89D-01  5.62D-01  9.66D-01  7.59D-01  6.73D-01
                    CP:  1.11D+00  1.03D+00  9.64D-01
 E= -2379.19519160397     Delta-E=       -0.000007513427 Rises=F Damp=F
 DIIS: error= 3.49D-05 at cycle   9 NSaved=   9.
 NSaved= 9 IEnMin= 9 EnMin= -2379.19519160397     IErMin= 9 ErrMin= 3.49D-05
 ErrMax= 3.49D-05  0.00D+00 EMaxC= 1.00D-01 BMatC= 6.62D-07 BMatP= 7.04D-06
 IDIUse=1 WtCom= 1.00D+00 WtEn= 0.00D+00
 Coeff-Com:  0.939D-03-0.137D-02-0.350D-02-0.691D-02-0.110D-01-0.663D-02
 Coeff-Com:  0.452D-01 0.256D+00 0.727D+00
 Coeff:      0.939D-03-0.137D-02-0.350D-02-0.691D-02-0.110D-01-0.663D-02
 Coeff:      0.452D-01 0.256D+00 0.727D+00
 Gap=     0.146 Goal=   None    Shift=    0.000
 RMSDP=8.41D-06 MaxDP=9.25D-04 DE=-7.51D-06 OVMax= 3.67D-04

 Cycle  10  Pass 1  IDiag  1:
 RMSU=  4.15D-06    CP:  5.89D-01  5.61D-01  9.65D-01  7.59D-01  6.77D-01
                    CP:  1.13D+00  1.05D+00  9.98D-01  1.12D+00
 E= -2379.19519237523     Delta-E=       -0.000000771257 Rises=F Damp=F
 DIIS: error= 7.91D-06 at cycle  10 NSaved=  10.
 NSaved=10 IEnMin=10 EnMin= -2379.19519237523     IErMin=10 ErrMin= 7.91D-06
 ErrMax= 7.91D-06  0.00D+00 EMaxC= 1.00D-01 BMatC= 1.10D-07 BMatP= 6.62D-07
 IDIUse=1 WtCom= 1.00D+00 WtEn= 0.00D+00
 Coeff-Com:  0.166D-03-0.193D-03-0.976D-03-0.243D-02-0.536D-02-0.193D-01
 Coeff-Com: -0.142D-01 0.622D-01 0.361D+00 0.619D+00
 Coeff:      0.166D-03-0.193D-03-0.976D-03-0.243D-02-0.536D-02-0.193D-01
 Coeff:     -0.142D-01 0.622D-01 0.361D+00 0.619D+00
 Gap=     0.146 Goal=   None    Shift=    0.000
 RMSDP=3.05D-06 MaxDP=2.42D-04 DE=-7.71D-07 OVMax= 1.54D-04

 Cycle  11  Pass 1  IDiag  1:
 RMSU=  1.70D-06    CP:  5.89D-01  5.61D-01  9.65D-01  7.60D-01  6.79D-01
                    CP:  1.13D+00  1.07D+00  1.03D+00  1.19D+00  1.01D+00
 E= -2379.19519249087     Delta-E=       -0.000000115648 Rises=F Damp=F
 DIIS: error= 3.50D-06 at cycle  11 NSaved=  11.
 NSaved=11 IEnMin=11 EnMin= -2379.19519249087     IErMin=11 ErrMin= 3.50D-06
 ErrMax= 3.50D-06  0.00D+00 EMaxC= 1.00D-01 BMatC= 1.63D-08 BMatP= 1.10D-07
 IDIUse=1 WtCom= 1.00D+00 WtEn= 0.00D+00
 Coeff-Com: -0.867D-04 0.152D-03 0.285D-03 0.278D-03-0.387D-03-0.854D-02
 Coeff-Com: -0.152D-01-0.190D-01 0.333D-01 0.298D+00 0.711D+00
 Coeff:     -0.867D-04 0.152D-03 0.285D-03 0.278D-03-0.387D-03-0.854D-02
 Coeff:     -0.152D-01-0.190D-01 0.333D-01 0.298D+00 0.711D+00
 Gap=     0.146 Goal=   None    Shift=    0.000
 RMSDP=1.48D-06 MaxDP=1.78D-04 DE=-1.16D-07 OVMax= 7.87D-05

 Cycle  12  Pass 1  IDiag  1:
 RMSU=  6.26D-07    CP:  5.89D-01  5.61D-01  9.65D-01  7.60D-01  6.79D-01
                    CP:  1.13D+00  1.07D+00  1.04D+00  1.25D+00  1.15D+00
                    CP:  9.88D-01
 E= -2379.19519250975     Delta-E=       -0.000000018879 Rises=F Damp=F
 DIIS: error= 1.74D-06 at cycle  12 NSaved=  12.
 NSaved=12 IEnMin=12 EnMin= -2379.19519250975     IErMin=12 ErrMin= 1.74D-06
 ErrMax= 1.74D-06  0.00D+00 EMaxC= 1.00D-01 BMatC= 3.75D-09 BMatP= 1.63D-08
 IDIUse=1 WtCom= 1.00D+00 WtEn= 0.00D+00
 Coeff-Com: -0.642D-04 0.101D-03 0.267D-03 0.416D-03 0.353D-03-0.271D-02
 Coeff-Com: -0.662D-02-0.171D-01-0.182D-01 0.967D-01 0.414D+00 0.532D+00
 Coeff:     -0.642D-04 0.101D-03 0.267D-03 0.416D-03 0.353D-03-0.271D-02
 Coeff:     -0.662D-02-0.171D-01-0.182D-01 0.967D-01 0.414D+00 0.532D+00
 Gap=     0.146 Goal=   None    Shift=    0.000
 RMSDP=3.36D-07 MaxDP=3.34D-05 DE=-1.89D-08 OVMax= 2.02D-05

 Cycle  13  Pass 1  IDiag  1:
 RMSU=  2.23D-07    CP:  5.89D-01  5.61D-01  9.65D-01  7.60D-01  6.79D-01
                    CP:  1.13D+00  1.07D+00  1.04D+00  1.26D+00  1.17D+00
                    CP:  1.05D+00  8.09D-01
 E= -2379.19519251380     Delta-E=       -0.000000004050 Rises=F Damp=F
 DIIS: error= 6.06D-07 at cycle  13 NSaved=  13.
 NSaved=13 IEnMin=13 EnMin= -2379.19519251380     IErMin=13 ErrMin= 6.06D-07
 ErrMax= 6.06D-07  0.00D+00 EMaxC= 1.00D-01 BMatC= 4.15D-10 BMatP= 3.75D-09
 IDIUse=1 WtCom= 1.00D+00 WtEn= 0.00D+00
 Coeff-Com: -0.214D-04 0.308D-04 0.880D-04 0.163D-03 0.243D-03-0.326D-04
 Coeff-Com: -0.913D-03-0.611D-02-0.158D-01-0.128D-02 0.107D+00 0.281D+00
 Coeff-Com:  0.636D+00
 Coeff:     -0.214D-04 0.308D-04 0.880D-04 0.163D-03 0.243D-03-0.326D-04
 Coeff:     -0.913D-03-0.611D-02-0.158D-01-0.128D-02 0.107D+00 0.281D+00
 Coeff:      0.636D+00
 Gap=     0.146 Goal=   None    Shift=    0.000
 RMSDP=1.84D-07 MaxDP=1.37D-05 DE=-4.05D-09 OVMax= 6.75D-06

 Cycle  14  Pass 1  IDiag  1:
 RMSU=  1.03D-07    CP:  5.89D-01  5.61D-01  9.65D-01  7.60D-01  6.79D-01
                    CP:  1.13D+00  1.07D+00  1.04D+00  1.27D+00  1.18D+00
                    CP:  1.09D+00  8.56D-01  9.47D-01
 E= -2379.19519251332     Delta-E=        0.000000000485 Rises=F Damp=F
 DIIS: error= 2.00D-07 at cycle  14 NSaved=  14.
 NSaved=14 IEnMin=13 EnMin= -2379.19519251380     IErMin=14 ErrMin= 2.00D-07
 ErrMax= 2.00D-07  0.00D+00 EMaxC= 1.00D-01 BMatC= 1.29D-10 BMatP= 4.15D-10
 IDIUse=1 WtCom= 1.00D+00 WtEn= 0.00D+00
 Coeff-Com: -0.361D-05 0.375D-05 0.126D-04 0.367D-04 0.104D-03 0.435D-03
 Coeff-Com:  0.517D-03-0.106D-02-0.749D-02-0.188D-01-0.266D-02 0.918D-01
 Coeff-Com:  0.420D+00 0.517D+00
 Coeff:     -0.361D-05 0.375D-05 0.126D-04 0.367D-04 0.104D-03 0.435D-03
 Coeff:      0.517D-03-0.106D-02-0.749D-02-0.188D-01-0.266D-02 0.918D-01
 Coeff:      0.420D+00 0.517D+00
 Gap=     0.146 Goal=   None    Shift=    0.000
 RMSDP=7.58D-08 MaxDP=6.75D-06 DE= 4.85D-10 OVMax= 4.15D-06

 Cycle  15  Pass 1  IDiag  1:
 RMSU=  3.87D-08    CP:  5.89D-01  5.61D-01  9.65D-01  7.60D-01  6.79D-01
                    CP:  1.13D+00  1.07D+00  1.04D+00  1.27D+00  1.19D+00
                    CP:  1.10D+00  8.71D-01  1.07D+00  8.16D-01
 E= -2379.19519251355     Delta-E=       -0.000000000229 Rises=F Damp=F
 DIIS: error= 5.31D-08 at cycle  15 NSaved=  15.
 NSaved=15 IEnMin=13 EnMin= -2379.19519251380     IErMin=15 ErrMin= 5.31D-08
 ErrMax= 5.31D-08  0.00D+00 EMaxC= 1.00D-01 BMatC= 8.70D-12 BMatP= 1.29D-10
 IDIUse=1 WtCom= 1.00D+00 WtEn= 0.00D+00
 Coeff-Com:  0.120D-05-0.235D-05-0.427D-05-0.191D-05 0.222D-04 0.198D-03
 Coeff-Com:  0.340D-03 0.325D-03-0.141D-02-0.880D-02-0.142D-01 0.104D-01
 Coeff-Com:  0.124D+00 0.253D+00 0.636D+00
 Coeff:      0.120D-05-0.235D-05-0.427D-05-0.191D-05 0.222D-04 0.198D-03
 Coeff:      0.340D-03 0.325D-03-0.141D-02-0.880D-02-0.142D-01 0.104D-01
 Coeff:      0.124D+00 0.253D+00 0.636D+00
 Gap=     0.146 Goal=   None    Shift=    0.000
 RMSDP=2.32D-08 MaxDP=1.50D-06 DE=-2.29D-10 OVMax= 1.08D-06

 Cycle  16  Pass 1  IDiag  1:
 RMSU=  1.37D-08    CP:  5.89D-01  5.61D-01  9.65D-01  7.60D-01  6.79D-01
                    CP:  1.13D+00  1.07D+00  1.04D+00  1.27D+00  1.19D+00
                    CP:  1.10D+00  8.84D-01  1.09D+00  8.74D-01  8.88D-01
 E= -2379.19519251363     Delta-E=       -0.000000000085 Rises=F Damp=F
 DIIS: error= 4.74D-08 at cycle  16 NSaved=  16.
 NSaved=16 IEnMin=13 EnMin= -2379.19519251380     IErMin=16 ErrMin= 4.74D-08
 ErrMax= 4.74D-08  0.00D+00 EMaxC= 1.00D-01 BMatC= 2.54D-12 BMatP= 8.70D-12
 IDIUse=1 WtCom= 1.00D+00 WtEn= 0.00D+00
 Coeff-Com:  0.146D-05-0.218D-05-0.478D-05-0.754D-05-0.524D-05 0.303D-04
 Coeff-Com:  0.103D-03 0.398D-03 0.571D-03-0.182D-02-0.795D-02-0.111D-01
 Coeff-Com: -0.710D-02 0.539D-01 0.394D+00 0.579D+00
 Coeff:      0.146D-05-0.218D-05-0.478D-05-0.754D-05-0.524D-05 0.303D-04
 Coeff:      0.103D-03 0.398D-03 0.571D-03-0.182D-02-0.795D-02-0.111D-01
 Coeff:     -0.710D-02 0.539D-01 0.394D+00 0.579D+00
 Gap=     0.146 Goal=   None    Shift=    0.000
 RMSDP=1.01D-08 MaxDP=8.31D-07 DE=-8.55D-11 OVMax= 4.51D-07

 Cycle  17  Pass 1  IDiag  1:
 RMSU=  6.40D-09    CP:  5.89D-01  5.61D-01  9.65D-01  7.60D-01  6.79D-01
                    CP:  1.13D+00  1.07D+00  1.04D+00  1.27D+00  1.19D+00
                    CP:  1.10D+00  8.85D-01  1.11D+00  8.79D-01  9.86D-01
                    CP:  9.14D-01
 E= -2379.19519251379     Delta-E=       -0.000000000155 Rises=F Damp=F
 DIIS: error= 1.62D-08 at cycle  17 NSaved=  17.
 NSaved=17 IEnMin=13 EnMin= -2379.19519251380     IErMin=17 ErrMin= 1.62D-08
 ErrMax= 1.62D-08  0.00D+00 EMaxC= 1.00D-01 BMatC= 3.88D-13 BMatP= 2.54D-12
 IDIUse=1 WtCom= 1.00D+00 WtEn= 0.00D+00
 Coeff-Com:  0.613D-06-0.830D-06-0.204D-05-0.369D-05-0.637D-05-0.173D-04
 Coeff-Com:  0.533D-05 0.171D-03 0.546D-03 0.272D-03-0.227D-02-0.821D-02
 Coeff-Com: -0.246D-01-0.889D-02 0.127D+00 0.338D+00 0.578D+00
 Coeff:      0.613D-06-0.830D-06-0.204D-05-0.369D-05-0.637D-05-0.173D-04
 Coeff:      0.533D-05 0.171D-03 0.546D-03 0.272D-03-0.227D-02-0.821D-02
 Coeff:     -0.246D-01-0.889D-02 0.127D+00 0.338D+00 0.578D+00
 Gap=     0.146 Goal=   None    Shift=    0.000
 RMSDP=5.68D-09 MaxDP=5.42D-07 DE=-1.55D-10 OVMax= 2.34D-07

 SCF Done:  E(RMN15) =  -2379.19519251     A.U. after   17 cycles
            NFock= 17  Conv=0.57D-08     -V/T= 2.0025
 KE= 2.373360853155D+03 PE=-1.450260531665D+04 EE= 5.283545260733D+03
 Leave Link  502 at Tue Dec  5 07:29:07 2023, MaxMem=  2147483648 cpu:           13470.8 elap:             525.4
 (Enter /opt/gaussian/g16-c01/g16/l601.exe)
 Copying SCF densities to generalized density rwf, IOpCl= 0 IROHF=0.

 **********************************************************************

            Population analysis using the SCF Density.

 **********************************************************************

 Orbital symmetries:
       Occupied  (A) (A) (A) (A) (A) (A) (A) (A) (A) (A) (A) (A)
                 (A) (A) (A) (A) (A) (A) (A) (A) (A) (A) (A) (A)
                 (A) (A) (A) (A) (A) (A) (A) (A) (A) (A) (A) (A)
                 (A) (A) (A) (A) (A) (A) (A) (A) (A) (A) (A) (A)
                 (A) (A) (A) (A) (A) (A) (A) (A) (A) (A) (A) (A)
                 (A) (A) (A) (A) (A) (A) (A) (A) (A) (A) (A) (A)
                 (A) (A) (A) (A) (A) (A) (A) (A) (A) (A) (A) (A)
                 (A) (A) (A) (A) (A) (A) (A) (A) (A) (A) (A) (A)
                 (A) (A) (A) (A) (A) (A) (A) (A) (A) (A) (A) (A)
                 (A) (A) (A) (A) (A) (A) (A) (A) (A) (A) (A) (A)
                 (A) (A) (A) (A) (A) (A) (A) (A) (A) (A) (A) (A)
                 (A) (A) (A) (A) (A) (A) (A) (A) (A) (A) (A) (A)
                 (A) (A) (A) (A) (A) (A) (A) (A) (A) (A) (A) (A)
       Virtual   (A) (A) (A) (A) (A) (A) (A) (A) (A) (A) (A) (A)
                 (A) (A) (A) (A) (A) (A) (A) (A) (A) (A) (A) (A)
                 (A) (A) (A) (A) (A) (A) (A) (A) (A) (A) (A) (A)
                 (A) (A) (A) (A) (A) (A) (A) (A) (A) (A) (A) (A)
                 (A) (A) (A) (A) (A) (A) (A) (A) (A) (A) (A) (A)
                 (A) (A) (A) (A) (A) (A) (A) (A) (A) (A) (A) (A)
                 (A) (A) (A) (A) (A) (A) (A) (A) (A) (A) (A) (A)
                 (A) (A) (A) (A) (A) (A) (A) (A) (A) (A) (A) (A)
                 (A) (A) (A) (A) (A) (A) (A) (A) (A) (A) (A) (A)
                 (A) (A) (A) (A) (A) (A) (A) (A) (A) (A) (A) (A)
                 (A) (A) (A) (A) (A) (A) (A) (A) (A) (A) (A) (A)
                 (A) (A) (A) (A) (A) (A) (A) (A) (A) (A) (A) (A)
                 (A) (A) (A) (A) (A) (A) (A) (A) (A) (A) (A) (A)
                 (A) (A) (A) (A) (A) (A) (A) (A) (A) (A) (A) (A)
                 (A) (A) (A) (A) (A) (A) (A) (A) (A) (A) (A) (A)
                 (A) (A) (A) (A) (A) (A) (A) (A) (A) (A) (A) (A)
                 (A) (A) (A) (A) (A) (A) (A) (A) (A) (A) (A) (A)
                 (A) (A) (A) (A) (A) (A) (A) (A) (A) (A) (A) (A)
                 (A) (A) (A) (A) (A) (A) (A) (A) (A) (A) (A) (A)
                 (A) (A) (A) (A) (A) (A) (A) (A) (A) (A) (A) (A)
                 (A) (A) (A) (A) (A) (A) (A) (A) (A) (A) (A) (A)
                 (A) (A) (A) (A) (A) (A) (A) (A) (A) (A) (A) (A)
                 (A) (A) (A) (A) (A) (A) (A) (A) (A) (A) (A) (A)
                 (A) (A) (A) (A) (A) (A) (A) (A) (A) (A) (A) (A)
                 (A) (A) (A) (A) (A) (A) (A) (A) (A) (A) (A) (A)
                 (A) (A) (A) (A) (A) (A) (A) (A) (A) (A) (A) (A)
                 (A) (A) (A) (A) (A) (A) (A) (A) (A) (A) (A) (A)
                 (A) (A) (A) (A) (A) (A) (A) (A) (A) (A) (A) (A)
                 (A) (A) (A) (A) (A) (A) (A) (A) (A) (A) (A) (A)
                 (A) (A) (A) (A) (A) (A) (A) (A) (A) (A) (A) (A)
                 (A) (A) (A) (A) (A) (A) (A) (A) (A) (A) (A) (A)
                 (A) (A) (A) (A) (A) (A) (A) (A) (A) (A) (A) (A)
                 (A) (A) (A) (A) (A) (A) (A) (A) (A) (A) (A) (A)
                 (A) (A) (A) (A) (A) (A) (A) (A) (A) (A) (A) (A)
                 (A) (A) (A) (A) (A) (A) (A) (A) (A) (A) (A) (A)
                 (A) (A) (A) (A) (A) (A) (A) (A) (A) (A) (A) (A)
                 (A) (A) (A) (A) (A) (A) (A) (A) (A) (A) (A) (A)
                 (A) (A) (A) (A) (A) (A) (A) (A) (A) (A) (A) (A)
                 (A) (A) (A) (A) (A) (A) (A) (A) (A) (A) (A) (A)
                 (A) (A) (A) (A) (A) (A) (A) (A) (A) (A) (A) (A)
                 (A) (A) (A) (A) (A) (A) (A) (A) (A) (A) (A) (A)
                 (A) (A) (A) (A) (A) (A) (A) (A) (A) (A) (A) (A)
                 (A) (A) (A) (A) (A) (A) (A) (A) (A) (A) (A) (A)
                 (A) (A) (A) (A) (A) (A) (A) (A) (A) (A) (A) (A)
                 (A) (A) (A) (A) (A) (A) (A) (A) (A) (A) (A) (A)
                 (A) (A) (A) (A) (A) (A) (A) (A) (A) (A) (A) (A)
                 (A) (A) (A) (A) (A) (A) (A) (A) (A) (A) (A) (A)
                 (A) (A) (A) (A) (A) (A) (A) (A) (A) (A) (A) (A)
                 (A) (A) (A) (A) (A) (A) (A) (A) (A) (A) (A) (A)
                 (A) (A) (A) (A) (A) (A) (A) (A) (A) (A) (A) (A)
                 (A) (A) (A) (A) (A) (A) (A) (A) (A) (A) (A) (A)
                 (A) (A) (A) (A) (A) (A) (A) (A) (A) (A) (A) (A)
                 (A) (A) (A) (A) (A) (A) (A) (A) (A) (A) (A) (A)
                 (A) (A) (A) (A) (A) (A) (A) (A) (A) (A) (A) (A)
                 (A) (A) (A) (A) (A) (A) (A) (A) (A) (A) (A) (A)
                 (A) (A) (A) (A) (A) (A) (A) (A) (A) (A) (A) (A)
                 (A) (A) (A) (A) (A) (A) (A) (A) (A) (A) (A) (A)
                 (A) (A) (A) (A) (A) (A) (A) (A) (A) (A) (A) (A)
                 (A) (A) (A) (A) (A) (A) (A) (A) (A) (A) (A) (A)
                 (A) (A) (A) (A) (A) (A) (A) (A) (A) (A) (A) (A)
                 (A) (A) (A) (A) (A) (A) (A) (A) (A) (A) (A) (A)
                 (A) (A) (A) (A) (A) (A) (A) (A) (A) (A) (A) (A)
                 (A) (A) (A) (A) (A) (A) (A) (A) (A) (A) (A) (A)
                 (A) (A) (A) (A) (A) (A) (A) (A) (A) (A) (A) (A)
                 (A) (A) (A) (A) (A) (A) (A) (A) (A) (A) (A) (A)
                 (A) (A) (A) (A) (A) (A) (A) (A) (A) (A) (A) (A)
                 (A) (A) (A) (A) (A) (A) (A) (A) (A) (A) (A) (A)
                 (A) (A) (A) (A) (A) (A) (A) (A) (A) (A) (A) (A)
                 (A) (A) (A) (A) (A) (A) (A) (A) (A) (A) (A) (A)
                 (A) (A) (A) (A) (A) (A) (A) (A) (A) (A) (A) (A)
                 (A) (A) (A) (A) (A) (A) (A) (A) (A) (A) (A) (A)
                 (A) (A) (A) (A) (A) (A) (A) (A) (A) (A) (A) (A)
                 (A) (A) (A) (A) (A) (A) (A) (A) (A) (A) (A) (A)
                 (A) (A) (A) (A) (A) (A) (A) (A) (A) (A) (A) (A)
                 (A) (A) (A) (A) (A) (A) (A) (A) (A) (A) (A) (A)
                 (A) (A) (A) (A) (A) (A) (A) (A) (A) (A) (A) (A)
                 (A) (A) (A) (A) (A) (A) (A) (A) (A) (A) (A) (A)
                 (A) (A) (A) (A) (A) (A) (A) (A) (A) (A) (A)
 The electronic state is 1-A.
 Alpha  occ. eigenvalues --  -87.79491 -18.91076 -18.91026 -18.90731 -18.90552
 Alpha  occ. eigenvalues --  -18.81228 -18.80877 -18.80758 -18.80575 -10.15975
 Alpha  occ. eigenvalues --  -10.15596 -10.15308 -10.15068 -10.14743 -10.14373
 Alpha  occ. eigenvalues --  -10.14258 -10.14062 -10.13110 -10.12516 -10.12211
 Alpha  occ. eigenvalues --  -10.12107 -10.12025 -10.11935 -10.10449 -10.10436
 Alpha  occ. eigenvalues --  -10.10114 -10.09894 -10.09235 -10.08522 -10.08418
 Alpha  occ. eigenvalues --  -10.08350 -10.08200 -10.08064 -10.08024 -10.07983
 Alpha  occ. eigenvalues --  -10.07913 -10.07838 -10.07713 -10.07705 -10.07699
 Alpha  occ. eigenvalues --  -10.07435 -10.07410 -10.07377 -10.07283 -10.06962
 Alpha  occ. eigenvalues --   -7.77119  -5.95628  -5.95001  -5.94554  -1.20720
 Alpha  occ. eigenvalues --   -1.20667  -1.20329  -1.20125  -1.08206  -1.07976
 Alpha  occ. eigenvalues --   -1.07884  -1.07679  -0.98168  -0.92819  -0.91337
 Alpha  occ. eigenvalues --   -0.89882  -0.89347  -0.89061  -0.88763  -0.87889
 Alpha  occ. eigenvalues --   -0.87415  -0.87250  -0.86801  -0.84076  -0.82548
 Alpha  occ. eigenvalues --   -0.82090  -0.81783  -0.80685  -0.78670  -0.74584
 Alpha  occ. eigenvalues --   -0.73517  -0.72769  -0.72534  -0.70929  -0.69741
 Alpha  occ. eigenvalues --   -0.69575  -0.68932  -0.68829  -0.68242  -0.64322
 Alpha  occ. eigenvalues --   -0.64087  -0.63938  -0.63657  -0.63359  -0.62949
 Alpha  occ. eigenvalues --   -0.62504  -0.61488  -0.61227  -0.60403  -0.59835
 Alpha  occ. eigenvalues --   -0.59302  -0.57035  -0.55986  -0.55834  -0.55691
 Alpha  occ. eigenvalues --   -0.55529  -0.55502  -0.55375  -0.55241  -0.53986
 Alpha  occ. eigenvalues --   -0.52332  -0.51751  -0.51401  -0.49996  -0.49479
 Alpha  occ. eigenvalues --   -0.49186  -0.49041  -0.48831  -0.48731  -0.48471
 Alpha  occ. eigenvalues --   -0.48383  -0.48304  -0.48136  -0.47839  -0.47667
 Alpha  occ. eigenvalues --   -0.47390  -0.46601  -0.46406  -0.46341  -0.46243
 Alpha  occ. eigenvalues --   -0.46065  -0.45328  -0.44641  -0.44518  -0.44207
 Alpha  occ. eigenvalues --   -0.44098  -0.44002  -0.43356  -0.42503  -0.38940
 Alpha  occ. eigenvalues --   -0.38144  -0.38023  -0.37720  -0.36686  -0.36157
 Alpha  occ. eigenvalues --   -0.35915  -0.35759  -0.35685  -0.35410  -0.35210
 Alpha  occ. eigenvalues --   -0.33033  -0.32439  -0.32127  -0.32109  -0.32004
 Alpha  occ. eigenvalues --   -0.31811  -0.30410  -0.29101  -0.28325  -0.27825
 Alpha  occ. eigenvalues --   -0.25001
 Alpha virt. eigenvalues --   -0.10381  -0.08018  -0.07331  -0.06932  -0.05818
 Alpha virt. eigenvalues --   -0.04210  -0.00472  -0.00238   0.00175   0.00610
 Alpha virt. eigenvalues --    0.01034   0.01231   0.01878   0.02549   0.02848
 Alpha virt. eigenvalues --    0.03241   0.03669   0.03849   0.04076   0.04320
 Alpha virt. eigenvalues --    0.04567   0.04917   0.05176   0.05425   0.05509
 Alpha virt. eigenvalues --    0.05623   0.06122   0.06223   0.06588   0.06719
 Alpha virt. eigenvalues --    0.06946   0.07089   0.07443   0.07649   0.07798
 Alpha virt. eigenvalues --    0.08043   0.08166   0.08261   0.08488   0.08647
 Alpha virt. eigenvalues --    0.08832   0.09146   0.09454   0.09617   0.09730
 Alpha virt. eigenvalues --    0.09831   0.10050   0.10169   0.10574   0.10764
 Alpha virt. eigenvalues --    0.10868   0.11123   0.11186   0.11568   0.11672
 Alpha virt. eigenvalues --    0.11913   0.11990   0.12251   0.12419   0.12533
 Alpha virt. eigenvalues --    0.12649   0.12913   0.13023   0.13076   0.13261
 Alpha virt. eigenvalues --    0.13312   0.13438   0.13593   0.13810   0.14025
 Alpha virt. eigenvalues --    0.14092   0.14186   0.14549   0.14671   0.14741
 Alpha virt. eigenvalues --    0.14946   0.15107   0.15271   0.15337   0.15403
 Alpha virt. eigenvalues --    0.15681   0.15796   0.15903   0.16065   0.16184
 Alpha virt. eigenvalues --    0.16311   0.16517   0.16521   0.16659   0.16745
 Alpha virt. eigenvalues --    0.16840   0.16984   0.17305   0.17410   0.17654
 Alpha virt. eigenvalues --    0.17691   0.17763   0.17887   0.18163   0.18229
 Alpha virt. eigenvalues --    0.18447   0.18550   0.18583   0.18748   0.18969
 Alpha virt. eigenvalues --    0.19067   0.19363   0.19537   0.19722   0.20012
 Alpha virt. eigenvalues --    0.20125   0.20231   0.20367   0.20610   0.20804
 Alpha virt. eigenvalues --    0.20826   0.20935   0.21410   0.21537   0.21606
 Alpha virt. eigenvalues --    0.21965   0.22230   0.22400   0.22702   0.22988
 Alpha virt. eigenvalues --    0.23162   0.23385   0.23438   0.23736   0.23901
 Alpha virt. eigenvalues --    0.24053   0.24108   0.24516   0.24642   0.24736
 Alpha virt. eigenvalues --    0.24877   0.24929   0.25190   0.25347   0.25537
 Alpha virt. eigenvalues --    0.25632   0.25758   0.26069   0.26196   0.26441
 Alpha virt. eigenvalues --    0.26718   0.26789   0.26997   0.27191   0.27286
 Alpha virt. eigenvalues --    0.27356   0.27630   0.27903   0.28226   0.28388
 Alpha virt. eigenvalues --    0.28508   0.28654   0.28828   0.29002   0.29061
 Alpha virt. eigenvalues --    0.29571   0.29633   0.29892   0.29972   0.30082
 Alpha virt. eigenvalues --    0.30388   0.30485   0.30595   0.30865   0.30927
 Alpha virt. eigenvalues --    0.31107   0.31347   0.31461   0.31563   0.31795
 Alpha virt. eigenvalues --    0.32036   0.32071   0.32198   0.32455   0.32544
 Alpha virt. eigenvalues --    0.32789   0.32888   0.33029   0.33325   0.33422
 Alpha virt. eigenvalues --    0.33527   0.33621   0.33877   0.34010   0.34309
 Alpha virt. eigenvalues --    0.34406   0.34636   0.34959   0.35034   0.35123
 Alpha virt. eigenvalues --    0.35386   0.35729   0.35861   0.36015   0.36119
 Alpha virt. eigenvalues --    0.36655   0.36773   0.36804   0.37158   0.37316
 Alpha virt. eigenvalues --    0.37406   0.37504   0.37743   0.37832   0.38055
 Alpha virt. eigenvalues --    0.38321   0.38678   0.38835   0.39207   0.39232
 Alpha virt. eigenvalues --    0.39589   0.39667   0.39954   0.40198   0.40281
 Alpha virt. eigenvalues --    0.40758   0.40861   0.41170   0.41251   0.41773
 Alpha virt. eigenvalues --    0.42059   0.42198   0.42334   0.42551   0.42911
 Alpha virt. eigenvalues --    0.42989   0.43155   0.43363   0.43587   0.43905
 Alpha virt. eigenvalues --    0.44002   0.44129   0.44458   0.44825   0.45083
 Alpha virt. eigenvalues --    0.45290   0.45508   0.45763   0.46235   0.46629
 Alpha virt. eigenvalues --    0.47056   0.47660   0.48077   0.48582   0.48663
 Alpha virt. eigenvalues --    0.49066   0.49326   0.49666   0.49878   0.50436
 Alpha virt. eigenvalues --    0.50912   0.51154   0.51852   0.52379   0.52906
 Alpha virt. eigenvalues --    0.53081   0.53642   0.53936   0.54137   0.54485
 Alpha virt. eigenvalues --    0.54849   0.55064   0.55139   0.55641   0.56088
 Alpha virt. eigenvalues --    0.56347   0.56550   0.56812   0.57200   0.57772
 Alpha virt. eigenvalues --    0.58016   0.58158   0.58822   0.58850   0.59325
 Alpha virt. eigenvalues --    0.59532   0.59863   0.60105   0.60383   0.60706
 Alpha virt. eigenvalues --    0.60957   0.61101   0.61302   0.61373   0.61686
 Alpha virt. eigenvalues --    0.62271   0.62376   0.62578   0.63038   0.63338
 Alpha virt. eigenvalues --    0.63386   0.63714   0.63795   0.64740   0.65080
 Alpha virt. eigenvalues --    0.65522   0.65975   0.66334   0.66592   0.66728
 Alpha virt. eigenvalues --    0.67133   0.67229   0.67415   0.67741   0.67863
 Alpha virt. eigenvalues --    0.68206   0.68545   0.68844   0.69056   0.69135
 Alpha virt. eigenvalues --    0.69532   0.69826   0.70046   0.70736   0.71053
 Alpha virt. eigenvalues --    0.71347   0.71457   0.71727   0.71911   0.72144
 Alpha virt. eigenvalues --    0.72614   0.73074   0.73492   0.73773   0.74135
 Alpha virt. eigenvalues --    0.74290   0.74982   0.75099   0.75608   0.76075
 Alpha virt. eigenvalues --    0.76506   0.76759   0.77167   0.77302   0.77538
 Alpha virt. eigenvalues --    0.77788   0.78098   0.78276   0.78623   0.79161
 Alpha virt. eigenvalues --    0.79387   0.79600   0.79785   0.80026   0.80646
 Alpha virt. eigenvalues --    0.81554   0.81933   0.82096   0.82353   0.82607
 Alpha virt. eigenvalues --    0.83292   0.83827   0.84255   0.84294   0.84817
 Alpha virt. eigenvalues --    0.85003   0.85263   0.85521   0.85568   0.86022
 Alpha virt. eigenvalues --    0.86273   0.86379   0.87133   0.87468   0.87674
 Alpha virt. eigenvalues --    0.88198   0.88787   0.89012   0.89090   0.89360
 Alpha virt. eigenvalues --    0.89715   0.89827   0.90337   0.91132   0.91275
 Alpha virt. eigenvalues --    0.91939   0.92177   0.92360   0.92880   0.93172
 Alpha virt. eigenvalues --    0.93216   0.93506   0.93768   0.93939   0.94813
 Alpha virt. eigenvalues --    0.95046   0.95173   0.95509   0.96009   0.96274
 Alpha virt. eigenvalues --    0.96739   0.96915   0.97500   0.97814   0.97952
 Alpha virt. eigenvalues --    0.98200   0.98792   0.98982   0.99467   0.99620
 Alpha virt. eigenvalues --    1.00161   1.00433   1.01582   1.01759   1.02192
 Alpha virt. eigenvalues --    1.02674   1.02852   1.03355   1.04200   1.04456
 Alpha virt. eigenvalues --    1.04692   1.05201   1.05697   1.06166   1.06682
 Alpha virt. eigenvalues --    1.06861   1.06917   1.07333   1.07676   1.07919
 Alpha virt. eigenvalues --    1.08298   1.08553   1.08822   1.09013   1.09185
 Alpha virt. eigenvalues --    1.09369   1.09417   1.09649   1.10059   1.10273
[...]
 971,0.00001087,-0.00001039,-0.00000798,0.00000058,-0.00000364,0.000005
 79,0.00000277,-0.00000018,-0.00000073,-0.00000650,0.00006344,-0.000015
 50,-0.00000004,-0.00000014,-0.00000019,-0.00002851,0.00002541,-0.00002
 692,-0.00000085,-0.00000094,0.00000016,-0.00028444,0.00050316,0.000214
 74,0.00000040,-0.00000018,-0.00000016,0.00003590,-0.00003920,-0.000021
 23,0.00000190,-0.00000200,-0.00000046,0.08699456,-0.00007569,-0.000105
 54,0.00004036,0.00000047,0.00001247,-0.00000021,0.00023486,0.00194060,
 -0.00033135,-0.00003169,0.00000524,-0.00000312,0.00030147,0.00033583,0
 .00015508,-0.00006092,-0.00002786,0.00001247,0.01125150,-0.04177809,-0
 .00934009,0.00006306,-0.00000747,0.00000611,0.00009574,0.00029752,0.00
 006059,0.00010665,0.00004696,-0.00000877,0.00002460,0.00000936,-0.0000
 2128,-0.00005320,-0.00000629,-0.00000926,0.00016399,0.00000498,-0.0000
 0228,-0.00019353,-0.00007252,0.00003614,-0.00014129,0.00007859,-0.0000
 0198,0.00015108,-0.00000275,-0.00001932,0.00006383,-0.00001842,-0.0000
 0607,0.00006609,0.00001260,-0.00001275,-0.00030352,0.00044315,0.000166
 31,-0.00002915,0.00001533,-0.00000566,-0.00033684,-0.00006037,-0.00009
 094,-0.00002983,-0.00000250,0.00000655,-0.00074716,-0.00058620,0.00026
 188,0.00001374,-0.00001195,0.00000038,0.00016305,-0.00002390,-0.000053
 97,0.00004330,-0.00003661,-0.00000606,-0.00005453,0.00007800,0.0000071
 0,-0.00000719,0.00001011,-0.00001642,-0.00003050,0.00013094,0.00006974
 ,-0.00003461,-0.00007434,0.00000529,-0.00343920,-0.00439246,-0.0003139
 4,0.00008879,0.00002199,0.00002129,-0.00029123,-0.00027848,-0.00012336
 ,0.00000461,0.00001199,-0.00000032,-0.00010621,-0.00021294,0.00008291,
 -0.00000766,0.00000371,-0.00000130,0.00006848,0.00003086,-0.00011723,-
 0.00004530,-0.00001197,0.00000951,-0.00004959,-0.00008089,0.00006694,0
 .00002085,-0.00000820,0.00001477,0.00003336,-0.00009042,-0.00007107,0.
 00005948,0.00007995,-0.00001127,-0.08471247,-0.24431724,0.01546718,-0.
 00009484,-0.00004021,-0.00002389,-0.00029222,-0.00041333,0.00016021,0.
 00005425,0.00003874,0.00001663,-0.00006847,0.00016052,-0.00002172,0.00
 000320,-0.00000621,-0.00001056,0.00001105,-0.00001369,0.00000714,0.000
 00622,-0.00000169,-0.00000169,-0.00006351,-0.00003252,0.00002658,-0.00
 000116,0.00000322,0.00000018,-0.00000258,-0.00001852,0.00000616,-0.000
 00151,-0.00000247,0.00000008,-0.00059139,-0.00000786,0.00023749,0.0000
 0134,-0.00000013,0.00000033,0.00010428,0.00002261,0.00018373,0.0000038
 8,-0.00000336,-0.00000104,0.07861302,0.28888761,-0.00000057,-0.0000211
 3,0.00001848,0.00000276,0.00000415,-0.00000107,0.00375865,0.00017608,0
 .00226641,0.00000024,-0.00000439,-0.00000158,0.00003659,-0.00002138,0.
 00020297,-0.00000517,-0.00000208,0.00000034,0.00163191,-0.01606836,0.0
 1531794,0.00001269,-0.00000348,-0.00000017,-0.00006825,-0.00043502,0.0
 0016429,-0.00009644,-0.00003102,0.00001225,-0.00001250,-0.00000799,-0.
 00000593,0.00005275,0.00000100,0.00000332,0.00003432,0.00001642,-0.000
 02809,0.00010431,-0.00000584,0.00000944,0.00000162,-0.00002634,-0.0000
 1635,-0.00001240,0.00005925,0.00008423,-0.00002400,0.00006417,0.000027
 26,0.00000123,-0.00000135,0.00000216,-0.00036817,0.00049019,0.00032624
 ,-0.00000981,0.00000802,0.00000293,-0.00019780,0.00019553,-0.00017302,
 -0.00000055,0.00000028,-0.00000107,-0.00001673,-0.00020536,-0.00000071
 ,0.00000530,-0.00000203,-0.00000004,-0.00003055,-0.00001463,0.00010039
 ,-0.00001051,0.00000014,-0.00002879,-0.00001419,-0.00007238,-0.0000613
 1,-0.00000327,-0.00001759,-0.00000338,0.00001526,-0.00001469,-0.000035
 85,-0.00000577,-0.00000630,0.00000122,0.00582241,0.00855984,0.01189010
 ,0.00000999,0.00000711,0.00000377,0.00018561,0.00007171,-0.00038554,-0
 .00000019,-0.00000147,-0.00000068,-0.00059802,-0.00010054,-0.00131363,
 -0.00000199,-0.00000187,-0.00000074,0.00008096,0.00011428,-0.00004815,
 0.00000113,0.00000205,0.00000514,-0.00001354,0.00012912,-0.00061695,0.
 00000581,0.00000120,-0.00000680,-0.00003118,0.00000764,0.00000536,0.00
 000510,0.00000702,-0.00000026,0.00687571,0.01345214,-0.05627171,-0.000
 01710,-0.00000271,-0.00000251,0.00002347,0.00047646,0.00024165,-0.0000
 0418,-0.00001893,-0.00000130,0.00000120,0.00004529,0.00006869,-0.00000
 369,-0.00000291,-0.00001682,-0.00000464,-0.00000370,0.00000163,0.00000
 023,-0.00000012,0.00000082,-0.00002146,-0.00002386,-0.00003485,-0.0000
 0045,0.00000072,0.00000040,0.00001656,-0.00000733,0.00002422,0.0000001
 0,-0.00000034,0.00000033,0.00008738,-0.00019815,0.00003420,0.00000051,
 0.00000004,0.00000039,-0.00004565,-0.00004879,-0.00004821,0.00000038,-
 0.00000033,0.00000002,-0.01710554,-0.00649140,0.02833157,-0.00000526,-
 0.00000336,-0.00000041,-0.00000069,-0.00000194,0.00000015,0.00000171,-
 0.00000208,0.00000002,0.00265655,0.00116837,0.00082236,0.00000392,-0.0
 0000159,-0.00000026,0.00000450,0.00000198,-0.00000088,0.00000387,-0.00
 000424,0.00000118,-0.00714326,0.04455587,0.00719370,0.00000538,-0.0000
 1264,-0.00000409,0.00000566,-0.00000322,0.00000206,0.00002086,-0.00000
 984,0.00000426,0.00000572,0.00000465,-0.00000376,-0.00000624,0.0000090
 4,0.00000195,-0.00000440,-0.00000134,0.00000025,-0.00004308,-0.0000146
 0,-0.00000848,0.00000055,-0.00000185,0.00000023,0.00006157,-0.00001223
 ,-0.00000587,-0.00000242,0.00000057,0.00000048,-0.00000050,0.00000097,
 0.00000013,-0.00032875,0.00030845,0.00002637,-0.00000639,0.00000891,0.
 00000173,0.00000090,-0.00000004,-0.00000014,-0.00000005,0.00000049,0.0
 0000028,0.00024782,-0.00171511,-0.00030295,-0.00000322,-0.00000831,0.0
 0000053,0.00000008,0.00000143,0.00000110,0.00000045,0.00000082,0.00000
 022,-0.00015843,0.00009762,0.00000325,-0.00000078,-0.00000065,-0.00000
 045,0.00000286,0.00000489,-0.00000050,0.00000085,0.00000007,-0.0000004
 9,0.00428405,-0.02517748,-0.00820220,0.00001505,-0.00000149,-0.0000055
 8,-0.00000034,0.00000012,0.00000006,-0.00000023,0.00000014,0.00000107,
 -0.00503907,-0.00009728,-0.00105422,-0.00000435,0.00000515,0.00000388,
 0.00000121,-0.00000069,-0.00000065,0.00000030,-0.00000055,-0.00000061,
 0.00025761,-0.00011582,0.00005039,0.00000640,0.00000213,0.00000421,-0.
 00000444,-0.00000573,0.00000081,-0.00000456,0.00000496,-0.00000044,-0.
 05888799,-0.00572193,-0.00156000,-0.00001479,0.00001270,0.00000691,0.0
 0000029,-0.00000027,-0.00000061,-0.00000094,0.00000080,-0.00000158,0.0
 0000019,0.00000033,-0.00000047,0.00000026,-0.00000045,0.00000207,-0.00
 000034,0.00000016,0.00000004,0.00000007,0.00000023,-0.00000041,-0.0004
 4328,0.00007109,0.00001803,-0.00000148,0.00000554,-0.00000199,0.000000
 03,0.00000018,0.,-0.00000052,0.00000021,-0.00000044,0.00007052,-0.0000
 1963,-0.00001816,0.00000024,-0.00000003,-0.00000007,-0.00000023,0.0000
 0017,0.00000005,-0.00000022,-0.00000097,-0.00000049,0.06444611,0.00004
 285,0.00000730,0.00000562,0.00000770,0.00001224,-0.00000116,-0.0000092
 0,0.00000567,0.00000478,0.00004900,0.00147222,0.00059909,0.00004302,0.
 00001595,-0.00000647,-0.00002514,-0.00001101,0.00000568,0.00002861,-0.
 00000170,-0.00000758,0.02654477,-0.01855002,-0.00532462,0.00000273,0.0
 0002310,0.00001192,-0.00010388,0.00000895,-0.00001069,-0.00002830,0.00
 001872,-0.00001287,-0.00000696,-0.00000009,0.00003131,-0.00001344,-0.0
 0001595,-0.00001391,0.00009410,0.00000850,-0.00002305,-0.00000344,0.00
 003729,0.00002474,-0.00004293,0.00003030,0.00000371,0.00008070,-0.0001
 9515,-0.00002371,0.00001568,-0.00000264,-0.00000390,-0.00000052,-0.000
 03354,-0.00000498,-0.00185686,-0.00094540,-0.00052480,-0.00002079,-0.0
 0006026,-0.00001113,-0.00000716,0.00000093,0.00000174,0.00000335,0.000
 01751,0.00000166,-0.00021909,0.00005770,0.00012579,-0.00001559,0.00001
 206,0.00001667,0.00000921,0.00000465,-0.00000449,-0.00000421,-0.000025
 86,-0.00000042,-0.00025065,0.00021900,-0.00000330,-0.00004347,-0.00001
 355,-0.00000396,-0.00002126,-0.00002808,0.00000422,0.00003911,0.000012
 42,-0.00001516,0.00229455,-0.01471207,-0.00760972,-0.00001763,0.000017
 69,0.00000974,0.00000261,-0.00000056,-0.00000054,-0.00000856,-0.000000
 69,0.00000307,-0.00146110,0.00086176,-0.00045400,0.00000018,0.00000746
 ,0.00000677,-0.00001277,-0.00000453,0.00000385,0.00000361,0.00002332,0
 .00000507,0.00028227,-0.00013411,0.00009220,0.00001517,0.00004176,0.00
 001244,0.00002487,0.00003137,-0.00000519,-0.00005175,-0.00000737,0.000
 01564,-0.01190907,-0.26915395,-0.05431475,0.00000283,-0.00002103,-0.00
 001500,-0.00000390,-0.00000051,-0.00000024,-0.00000083,-0.00001007,-0.
 00000735,-0.00000075,-0.00000384,0.00000563,0.00001011,0.00001577,-0.0
 0000335,0.00000135,-0.00000097,-0.00000057,0.00000002,-0.00000156,-0.0
 0000025,-0.00022190,0.00009769,0.00010203,-0.00000779,0.00000290,-0.00
 000892,-0.00000059,-0.00000100,-0.00000007,0.00000042,0.00000140,-0.00
 000061,0.00010631,0.00007878,-0.00000421,-0.00000694,0.00000358,-0.000
 00137,0.00000105,-0.00000095,-0.00000031,0.00000055,0.00000832,0.00000
 043,-0.01333304,0.30077794,0.00000984,0.00000322,0.00000157,0.00000151
 ,0.00000301,-0.00000047,-0.00000196,0.00000062,0.00000063,0.00053769,0
 .00076444,-0.00062086,0.00001453,0.00000518,-0.00000363,-0.00000543,-0
 .00000210,0.00000087,0.00001290,-0.00000404,-0.00000634,0.00271467,-0.
 00262164,0.01860027,0.00000187,0.00000301,0.,-0.00002320,0.00000030,-0
 .00000095,-0.00000500,0.00000071,-0.00000042,0.00000040,0.00000112,0.0
 0000707,-0.00000599,-0.00000261,-0.00000452,0.00002276,0.00000259,-0.0
 0000612,-0.00000720,0.00000833,0.00000025,-0.00001166,0.00000684,0.000
 00118,0.00002588,-0.00005726,0.00001389,0.00000334,-0.00000096,-0.0000
 0056,-0.00000014,-0.00000935,-0.00000144,-0.00051530,-0.00019596,-0.00
 009131,-0.00000734,-0.00001377,0.00000111,-0.00000159,0.00000023,0.000
 00018,0.00000113,0.00000545,-0.00000003,0.00007263,-0.00009811,-0.0005
 9892,-0.00000755,0.00000110,0.00000260,0.00000182,0.00000073,-0.000001
 94,-0.00000006,-0.00000596,-0.00000067,-0.00008920,0.00006153,0.000031
 83,-0.00000882,-0.00000287,-0.00000218,-0.00000438,-0.00000598,0.00000
 071,0.00001392,0.00000397,-0.00000517,-0.00136766,-0.01172854,0.014122
 87,0.00000036,0.00000271,0.00000090,0.00000046,-0.00000016,-0.00000008
 ,-0.00000346,0.00000023,0.00000095,-0.00139173,-0.00025373,0.00154532,
 -0.00000082,0.00000381,0.00000083,-0.00000261,-0.00000035,0.00000113,0
 .00000076,0.00000575,0.00000170,0.00015836,0.00003608,-0.00030327,0.00
 000362,0.00001093,-0.00000196,0.00000543,0.00000628,-0.00000081,-0.000
 02133,0.00000054,0.00000856,-0.00310344,-0.05339209,-0.07179566,-0.000
 00330,-0.00000239,0.00000003,-0.00000114,-0.00000009,0.00000018,-0.000
 00081,-0.00000210,-0.00000110,-0.00000001,-0.00000075,0.00000177,0.000
 00223,0.00000353,0.00000076,0.00000031,-0.00000020,0.00000008,0.000000
 24,-0.00000039,0.00000020,-0.00005478,0.00014705,-0.00041880,-0.000002
 40,0.00000103,0.00000115,-0.00000005,-0.00000025,0.00000009,0.,0.00000
 037,0.00000024,0.00001334,-0.00002317,0.00015760,-0.00000168,0.0000005
 0,0.00000103,0.00000020,-0.00000013,0.00000002,-0.00000005,0.00000220,
 0.00000040,0.00302857,0.06733085,0.03935942,-0.00004845,-0.00001451,0.
 00000445,-0.00000930,-0.00000015,0.00000089,-0.00026533,0.00042846,-0.
 00008285,-0.00001667,0.00001481,-0.00000016,0.00207053,-0.00000442,-0.
 00121043,-0.00001308,-0.00000521,0.00000140,0.00031557,-0.00003172,-0.
 00001676,-0.00000285,0.00000724,0.00000011,0.01920629,-0.00634573,-0.0
 0196726,0.00018170,0.00002605,-0.00002688,0.00001164,-0.00000903,-0.00
 001849,-0.00002250,-0.00000075,-0.00002879,0.00000904,-0.00002704,0.00
 002644,-0.00016565,-0.00001316,0.00003648,-0.00014776,0.00014814,0.000
 02167,0.00010109,-0.00003287,-0.00000643,0.00011568,-0.00018195,-0.000
 02294,0.00001467,0.00000099,0.00000059,0.00082017,-0.00010056,0.000076
 14,0.00001156,-0.00001667,-0.00000259,-0.00141263,0.00083066,0.0006405
 4,-0.00000725,-0.00000037,-0.00000020,0.00007536,0.00053084,-0.0002630
 9,-0.00000742,0.00000170,-0.00000099,-0.00084955,-0.00052768,-0.000027
 77,0.00000184,-0.00001666,0.00000685,0.00000542,0.00009852,-0.00000853
 ,0.00000885,0.00003740,-0.00000299,-0.00008429,0.00036928,0.00008651,0
 .00000786,-0.00001196,-0.00000132,-0.00031072,-0.00030023,0.00016921,0
 .00001824,-0.00000925,0.00000166,-0.01904889,-0.02166554,0.00599809,0.
 00000027,0.00000563,-0.00000066,-0.00027126,-0.00003854,-0.00040949,0.
 00000104,0.00000724,0.00000061,-0.00177947,0.00332990,0.00200109,-0.00
 000237,-0.00000066,-0.00000887,-0.00003904,-0.00011563,-0.00000587,-0.
 00000594,0.00000869,0.00000802,0.00005224,-0.00038384,-0.00018959,0.00
 001344,0.00001251,-0.00000145,-0.00068620,-0.00010148,0.00021916,-0.00
 000117,-0.00001493,-0.00000344,-0.19786008,-0.10141914,0.02038347,0.00
 001683,0.00001399,0.00003909,-0.00002711,0.00000737,-0.00000637,0.0000
 0325,0.00000211,-0.00000578,0.00001714,-0.00000283,0.00000282,0.000002
 55,-0.00000073,0.00000110,-0.00005514,0.00000915,-0.00003107,0.0000013
 7,-0.00000061,0.00000115,-0.00016568,0.00044213,-0.00000566,0.00000041
 ,-0.00000005,0.00000063,-0.00003677,0.00001716,-0.00002098,-0.00000101
 ,0.00000003,0.00000051,0.00010653,-0.00007079,-0.00000869,-0.00000008,
 0.00000075,0.00000029,0.00004503,0.00008174,-0.00004938,0.00000067,0.0
 0000276,0.00000132,0.20010740,-0.00005774,-0.00001166,-0.00000397,-0.0
 0001015,-0.00001329,0.00000107,0.00026626,0.00003815,-0.00013041,-0.00
 001539,0.00001103,0.00000091,-0.00078322,0.00134538,0.00079612,-0.0000
 1313,-0.00000775,0.00000183,0.00024040,-0.00004314,0.00000918,-0.00000
 211,0.00000497,0.00000070,-0.02340799,-0.04400924,-0.00686788,0.000128
 24,0.00001660,0.00000734,0.00009474,-0.00003240,-0.00000645,-0.0000173
 4,0.00002698,-0.00002589,0.00001268,-0.00001130,0.00003231,-0.00019495
 ,-0.00005238,0.00003255,-0.00020256,0.00011151,0.00000629,0.00012904,0
 .00001665,-0.00001937,0.00013943,-0.00004544,-0.00002140,0.00001518,0.
 00001180,-0.00000300,0.00011881,0.00050637,0.00008184,0.00001317,-0.00
 001493,-0.00000037,-0.00119289,0.00011884,0.00043374,-0.00000982,0.000
 00059,-0.00000078,0.00019207,0.00004909,-0.00030747,-0.00000728,0.0000
 0178,-0.00000123,0.00088828,0.00107743,0.00009783,0.00000161,-0.000029
 23,0.00000206,-0.00004856,0.00001234,0.00000717,0.00001645,0.00002552,
 0.00000197,-0.00006926,0.00004695,0.00002583,0.00000893,-0.00001363,-0
 .00000180,0.00009000,-0.00034179,0.00041062,0.00001480,-0.00000809,0.0
 0000064,0.00469526,0.00760509,-0.00361081,0.00000309,0.00000985,-0.000
 00124,-0.00038860,-0.00025776,0.00023571,0.00000161,0.00000667,0.00000
 189,0.00197495,-0.00156007,-0.00138448,-0.00000032,-0.00000245,0.00000
 328,0.00007966,-0.00003859,0.00004606,-0.00000604,0.00001010,-0.000001
 77,0.00000323,0.00002129,0.00006391,0.00001313,0.00001785,-0.00000178,
 -0.00052544,-0.00011662,0.00012093,-0.00000094,-0.00001035,-0.00000302
 ,-0.10748596,-0.13578515,0.01459201,0.00000186,0.00001365,0.00001895,-
 0.00001447,0.00001053,-0.00002138,0.00000727,-0.00000005,-0.00001067,0
 .00001168,-0.00000640,0.00001090,0.00000408,-0.00000016,0.00000204,0.0
 0006914,-0.00001906,0.00007782,0.00000077,-0.00000098,0.00000018,0.000
 14287,-0.00014443,0.00002191,0.00000047,0.00000066,0.00000078,-0.00004
 205,-0.00000391,-0.00003702,-0.00000051,-0.00000045,0.00000006,0.00004
 695,0.00003746,-0.00004395,0.00000100,-0.00000092,0.00000001,0.0000398
 1,0.00005620,-0.00002650,0.00000037,0.00000218,0.00000075,0.12502946,0
 .17136808,0.00001607,0.00002209,-0.00000610,0.00000198,-0.00000432,-0.
 00000094,0.00033693,-0.00002935,-0.00005404,0.00000834,-0.00000282,-0.
 00000039,-0.00145000,0.00060280,-0.00044970,0.00001523,0.00000694,-0.0
 0000447,-0.00009175,-0.00000124,-0.00001405,-0.00001284,0.00000094,-0.
 00000272,-0.00581870,-0.01256224,0.01716350,-0.00004973,-0.00002588,0.
 00000495,-0.00000927,-0.00002484,0.00002243,0.00002485,0.00000932,0.00
 002089,-0.00001717,0.00003469,-0.00001214,0.00008994,0.00002774,-0.000
 02902,0.00002024,-0.00003284,-0.00000757,-0.00006243,-0.00000870,0.000
 03715,-0.00001222,0.00004805,0.00004051,-0.00002140,-0.00000112,0.0000
 0268,-0.00048599,-0.00031531,-0.00000021,0.00000750,-0.00000216,-0.000
 00230,0.00002878,-0.00023103,-0.00015437,0.00000846,0.00000154,-0.0000
 0371,-0.00000007,0.00021768,0.00009127,-0.00000253,0.00000290,0.000000
 06,0.00030460,0.00065630,-0.00048592,-0.00001998,0.00002534,-0.0000158
 6,0.00003146,-0.00000512,-0.00004490,0.00000675,-0.00000627,-0.0000157
 8,0.00001443,-0.00010930,-0.00003467,0.00000733,0.00001852,-0.00000146
 ,-0.00009407,0.00047251,-0.00055628,-0.00002227,-0.00000344,-0.0000042
 9,0.01228642,0.00454238,0.01387917,-0.00000049,-0.00000283,-0.00000093
 ,0.00011830,0.00015037,-0.00029932,0.00000123,-0.00000159,-0.00000048,
 0.00175463,-0.00193166,0.00098066,0.00002025,-0.00000159,0.00000594,-0
 .00003489,-0.00002450,0.00004152,-0.00000845,0.00000414,0.00001121,-0.
 00010271,0.00018314,-0.00015944,-0.00001470,-0.00001938,0.00000401,0.0
 0025228,-0.00003549,0.00013827,0.00002042,0.00001051,0.00000672,0.0183
 6495,0.01304082,-0.05995785,-0.00000216,-0.00001780,-0.00001819,0.0000
 0955,-0.00000379,-0.00000311,-0.00000303,0.00000388,0.00000803,-0.0000
 0297,0.00000443,-0.00000242,-0.00000114,0.00000054,0.00000322,0.000007
 95,-0.00000944,0.00001789,0.00000003,-0.00000094,0.00000034,-0.0000655
 5,-0.00006160,-0.00046357,0.00000070,0.00000075,0.00000090,-0.00004136
 ,0.00001209,-0.00002607,-0.00000034,-0.00000021,0.00000032,0.00000770,
 0.00000562,0.00013349,-0.00000048,0.00000040,0.00000054,-0.00002404,-0
 .00001295,-0.00004307,-0.00000009,-0.00000205,-0.00000021,-0.02529452,
 -0.00461459,0.03025986\\-0.00000121,0.00000243,-0.00000062,-0.00000010
 ,0.00000036,0.00000074,-0.00000690,-0.00000522,-0.00000068,0.00000145,
 -0.00000063,-0.00000006,0.00001060,-0.00000183,-0.00001097,-0.00000082
 ,0.00000051,0.00000144,-0.00000410,0.00000280,-0.00000396,0.00000105,-
 0.00000041,-0.00000152,0.00000173,0.00000004,0.00000159,0.00000401,-0.
 00000335,-0.00000273,-0.00000106,0.00000612,0.00000530,0.00000038,0.00
 000070,-0.00000158,-0.00000100,-0.00000149,0.00000067,-0.00000316,0.00
 000477,0.00000272,0.00000056,-0.00000322,0.00000020,0.00000380,-0.0000
 0009,-0.00000092,0.00000018,0.00000605,-0.00001171,-0.00000072,0.00000
 145,-0.00000073,0.00000459,0.00000123,-0.00000366,0.00000091,0.0000014
 0,-0.00000063,-0.00001543,0.00000025,0.00000832,-0.00000144,-0.0000009
 2,0.00000063,-0.00000123,-0.00000100,0.00000231,0.00000042,0.00000017,
 -0.00000010,0.00000588,0.00000243,-0.00000149,-0.00000033,-0.00000467,
 0.00000076,0.00000222,0.00000106,0.00000042,0.00000184,-0.00000488,0.0
 0000225,-0.00000672,-0.00000152,0.00000561,0.00000062,0.00000061,0.000
 00085,0.00000140,0.00000948,-0.00000361,-0.00000071,0.00000091,-0.0000
 0168,-0.00000189,-0.00000470,0.00001111,0.00000065,0.00000134,-0.00000
 034,-0.00000014,-0.00000231,-0.00000278,-0.00000125,-0.00000039,0.0000
 0005,0.00000124,0.00000126,-0.00000505,0.00000189,-0.00000114,-0.00000
 011,0.00000059,-0.00000118,0.00000029,-0.00000225,-0.00000089,0.000000
 16,0.00000628,0.00000051,0.00000205,0.00000024,-0.00000187,-0.00000365
 ,0.00000484,-0.00000561,0.00001068,-0.00000020,0.00000014,0.00000345,-
 0.00000041,0.00000066,0.00000077,-0.00000235,0.00000131,-0.00000012,0.
 00000074,0.00000020,0.00000114,-0.00000053,-0.00000066,-0.00000077,-0.
 00000080,-0.00000017,0.00000087,0.00000059,0.00000008,0.00000018,-0.00
 000036,0.00000012,-0.00000044,-0.00000040,0.00000038,-0.00000058,-0.00
 000047,-0.00000126,-0.00000132,-0.00000022,-0.00000046,0.00000014,-0.0
 0000016,-0.00000045,0.00000031,0.00000033,0.00000024,-0.00000020,-0.00
 000121,0.00000036,0.00000162,0.00000062,0.00000013,0.00000096,-0.00000
 221,0.00000051,-0.00000387,-0.00000021,0.00000035,-0.00000142,0.000000
 34,-0.00000002,-0.00000026\\\@
 The archive entry for this job was punched.


 MISERY NO LONGER LOVES COMPANY.  NOWADAYS IT INSISTS ON IT.

                                              -- BAKER'S LAW
 Job cpu time:       4 days 12 hours  7 minutes 59.3 seconds.
 Elapsed time:       0 days  4 hours 21 minutes 36.3 seconds.
 File lengths (MBytes):  RWF=   5875 Int=      0 D2E=      0 Chk=    102 Scr=      1
 Normal termination of Gaussian 16 at Tue Dec  5 20:17:25 2023.
