 Entering Gaussian System, Link 0=g16
 Input=/home/exlonk/in_progress/3988.inp
 Output=/home/exlonk/in_progress/3988.log
 Initial command:
 /opt/gaussian/g16-c01/g16/l1.exe "/lustre/tmp/slurm/2182705/Gau-527673.inp" -scrdir="/lustre/tmp/slurm/2182705/"
 Default CPUs for threads: 0-4,7-9,13-15,19-20,24-28,31-33,37-39,43-44
 Default is to use a total of  26 processors:
                               26 via shared-memory
                                1 via Linda
 Entering Link 1 = /opt/gaussian/g16-c01/g16/l1.exe PID=    527674.
  
 Copyright (c) 1988-2019, Gaussian, Inc.  All Rights Reserved.
  
 This is part of the Gaussian(R) 16 program.  It is based on
 the Gaussian(R) 09 system (copyright 2009, Gaussian, Inc.),
 the Gaussian(R) 03 system (copyright 2003, Gaussian, Inc.),
 the Gaussian(R) 98 system (copyright 1998, Gaussian, Inc.),
 the Gaussian(R) 94 system (copyright 1995, Gaussian, Inc.),
 the Gaussian 92(TM) system (copyright 1992, Gaussian, Inc.),
 the Gaussian 90(TM) system (copyright 1990, Gaussian, Inc.),
 the Gaussian 88(TM) system (copyright 1988, Gaussian, Inc.),
 the Gaussian 86(TM) system (copyright 1986, Carnegie Mellon
 University), and the Gaussian 82(TM) system (copyright 1983,
 Carnegie Mellon University). Gaussian is a federally registered
 trademark of Gaussian, Inc.
  
 This software contains proprietary and confidential information,
 including trade secrets, belonging to Gaussian, Inc.
  
 This software is provided under written license and may be
 used, copied, transmitted, or stored only in accord with that
 written license.
  
 The following legend is applicable only to US Government
 contracts under FAR:
  
                    RESTRICTED RIGHTS LEGEND
  
 Use, reproduction and disclosure by the US Government is
 subject to restrictions as set forth in subparagraphs (a)
 and (c) of the Commercial Computer Software - Restricted
 Rights clause in FAR 52.227-19.
  
 Gaussian, Inc.
 340 Quinnipiac St., Bldg. 40, Wallingford CT 06492
  
  
 ---------------------------------------------------------------
 Warning -- This program may not be used in any manner that
 competes with the business of Gaussian, Inc. or will provide
 assistance to any competitor of Gaussian, Inc.  The licensee
 of this program is prohibited from giving any competitor of
 Gaussian, Inc. access to this program.  By using this program,
 the user acknowledges that Gaussian, Inc. is engaged in the
 business of creating and licensing software in the field of
 computational chemistry and represents and warrants to the
 licensee that it is not a competitor of Gaussian, Inc. and that
 it will not use this program in any manner prohibited above.
 ---------------------------------------------------------------
  

 Cite this work as:
 Gaussian 16, Revision C.01,
 M. J. Frisch, G. W. Trucks, H. B. Schlegel, G. E. Scuseria, 
 M. A. Robb, J. R. Cheeseman, G. Scalmani, V. Barone, 
 G. A. Petersson, H. Nakatsuji, X. Li, M. Caricato, A. V. Marenich, 
 J. Bloino, B. G. Janesko, R. Gomperts, B. Mennucci, H. P. Hratchian, 
 J. V. Ortiz, A. F. Izmaylov, J. L. Sonnenberg, D. Williams-Young, 
 F. Ding, F. Lipparini, F. Egidi, J. Goings, B. Peng, A. Petrone, 
 T. Henderson, D. Ranasinghe, V. G. Zakrzewski, J. Gao, N. Rega, 
 G. Zheng, W. Liang, M. Hada, M. Ehara, K. Toyota, R. Fukuda, 
 J. Hasegawa, M. Ishida, T. Nakajima, Y. Honda, O. Kitao, H. Nakai, 
 T. Vreven, K. Throssell, J. A. Montgomery, Jr., J. E. Peralta, 
 F. Ogliaro, M. J. Bearpark, J. J. Heyd, E. N. Brothers, K. N. Kudin, 
 V. N. Staroverov, T. A. Keith, R. Kobayashi, J. Normand, 
 K. Raghavachari, A. P. Rendell, J. C. Burant, S. S. Iyengar, 
 J. Tomasi, M. Cossi, J. M. Millam, M. Klene, C. Adamo, R. Cammi, 
 J. W. Ochterski, R. L. Martin, K. Morokuma, O. Farkas, 
 J. B. Foresman, and D. J. Fox, Gaussian, Inc., Wallingford CT, 2019.
 
 ******************************************
 Gaussian 16:  EM64L-G16RevC.01  3-Jul-2019
                 5-Dec-2023 
 ******************************************
 %nproc=26
 Will use up to   26 processors via shared memory.
 %mem=16GB
 %chk=/home/exlonk/in_progress/3988.chk
 ------------------------------
 #p MN15/6-311++G(d,p) opt freq
 ------------------------------
 1/18=20,19=15,26=3,38=1/1,3;
 2/9=110,12=2,17=6,18=5,40=1/2;
 3/5=4,6=6,7=1111,11=2,25=1,30=1,71=1,74=-73/1,2,3;
 4//1;
 5/5=2,38=5/2;
 6/7=2,8=2,9=2,10=2,28=1/1;
 7//1,2,3,16;
 1/18=20,19=15,26=3/3(2);
 2/9=110/2;
 99//99;
 2/9=110/2;
 3/5=4,6=6,7=1111,11=2,25=1,30=1,71=1,74=-73/1,2,3;
 4/5=5,16=3,69=1/1;
 5/5=2,38=5/2;
 7//1,2,3,16;
 1/18=20,19=15,26=3/3(-5);
 2/9=110/2;
 6/7=2,8=2,9=2,10=2,19=2,28=1/1;
 99/9=1/99;
 Leave Link    1 at Tue Dec  5 03:54:38 2023, MaxMem=  2147483648 cpu:               7.2 elap:               0.4
 (Enter /opt/gaussian/g16-c01/g16/l101.exe)
 ---------------
 name file: 3988
 ---------------
 Symbolic Z-matrix:
 Charge =  0 Multiplicity = 1
 N                    -0.4567    0.6714    0.6969 
 N                     0.3775    2.4676   -0.3266 
 N                     1.4776   -0.795     0.6082 
 N                     3.5246   -1.8939    0.3311 
 N                     3.3627    0.2907   -0.4983 
 N                     3.2366    2.5207   -1.3582 
 N                    -2.9074    3.2327    0.5234 
 C                    -1.3956   -0.1903    1.3779 
 C                     0.8312    0.3559    0.3697 
 C                     1.3308    1.4825   -0.2639 
 C                    -0.6824    1.9492    0.258 
 C                    -2.4058   -0.8228    0.4533 
 C                     2.6489    1.4233   -0.7054 
 C                     2.7419   -0.733     0.1364 
 C                    -3.7698   -0.6346    0.6766 
 C                    -1.9758   -1.5959   -0.625 
 C                    -4.7038   -1.2197   -0.1784 
 C                    -2.9096   -2.1809   -1.4801 
 C                     4.8922   -1.941    -0.1417 
 C                     2.9639   -3.0498    0.9986 
 C                    -4.2736   -1.9929   -1.2568 
 C                    -1.9075    2.6559    0.4042 
 H                    -1.8829    0.4095    2.1561 
 H                    -0.8386   -0.9778    1.8994 
 H                    -4.1193   -0.0348    1.5126 
 H                    -0.9192   -1.7644   -0.8111 
 H                    -5.7658   -1.0734   -0.0046 
 H                    -2.575    -2.7849   -2.3184 
 H                     4.9331   -1.8059   -1.2282 
 H                     5.4961   -1.161     0.3352 
 H                     5.3711   -2.9003    0.0818 
 H                     2.0995   -3.4361    0.4471 
 H                     2.6493   -2.7966    2.0171 
 H                     3.687    -3.8685    1.0793 
 H                     2.7056    3.3668   -1.514 
 H                     4.1959    2.4535   -1.67 
 H                    -5.0008   -2.4489   -1.9223 
 
 ITRead=  0  0  0  0  0  0  0  0  0  0  0  0  0  0  0  0  0  0  0  0
 ITRead=  0  0  0  0  0  0  0  0  0  0  0  0  0  0  0  0  0
 MicOpt= -1 -1 -1 -1 -1 -1 -1 -1 -1 -1 -1 -1 -1 -1 -1 -1 -1 -1 -1 -1
 MicOpt= -1 -1 -1 -1 -1 -1 -1 -1 -1 -1 -1 -1 -1 -1 -1 -1 -1
 NAtoms=     37 NQM=       37 NQMF=       0 NMMI=      0 NMMIF=      0
                NMic=       0 NMicF=      0.
                    Isotopes and Nuclear Properties:
 (Nuclear quadrupole moments (NQMom) in fm**2, nuclear magnetic moments (NMagM)
  in nuclear magnetons)

  Atom         1           2           3           4           5           6           7           8           9          10
 IAtWgt=          14          14          14          14          14          14          14          12          12          12
 AtmWgt=  14.0030740  14.0030740  14.0030740  14.0030740  14.0030740  14.0030740  14.0030740  12.0000000  12.0000000  12.0000000
 NucSpn=           2           2           2           2           2           2           2           0           0           0
 AtZEff=  -0.0000000  -0.0000000  -0.0000000  -0.0000000  -0.0000000  -0.0000000  -0.0000000  -0.0000000  -0.0000000  -0.0000000
 NQMom=    2.0440000   2.0440000   2.0440000   2.0440000   2.0440000   2.0440000   2.0440000   0.0000000   0.0000000   0.0000000
 NMagM=    0.4037610   0.4037610   0.4037610   0.4037610   0.4037610   0.4037610   0.4037610   0.0000000   0.0000000   0.0000000
 AtZNuc=   7.0000000   7.0000000   7.0000000   7.0000000   7.0000000   7.0000000   7.0000000   6.0000000   6.0000000   6.0000000

  Atom        11          12          13          14          15          16          17          18          19          20
 IAtWgt=          12          12          12          12          12          12          12          12          12          12
 AtmWgt=  12.0000000  12.0000000  12.0000000  12.0000000  12.0000000  12.0000000  12.0000000  12.0000000  12.0000000  12.0000000
 NucSpn=           0           0           0           0           0           0           0           0           0           0
 AtZEff=  -0.0000000  -0.0000000  -0.0000000  -0.0000000  -0.0000000  -0.0000000  -0.0000000  -0.0000000  -0.0000000  -0.0000000
 NQMom=    0.0000000   0.0000000   0.0000000   0.0000000   0.0000000   0.0000000   0.0000000   0.0000000   0.0000000   0.0000000
 NMagM=    0.0000000   0.0000000   0.0000000   0.0000000   0.0000000   0.0000000   0.0000000   0.0000000   0.0000000   0.0000000
 AtZNuc=   6.0000000   6.0000000   6.0000000   6.0000000   6.0000000   6.0000000   6.0000000   6.0000000   6.0000000   6.0000000

  Atom        21          22          23          24          25          26          27          28          29          30
 IAtWgt=          12          12           1           1           1           1           1           1           1           1
 AtmWgt=  12.0000000  12.0000000   1.0078250   1.0078250   1.0078250   1.0078250   1.0078250   1.0078250   1.0078250   1.0078250
 NucSpn=           0           0           1           1           1           1           1           1           1           1
 AtZEff=  -0.0000000  -0.0000000  -0.0000000  -0.0000000  -0.0000000  -0.0000000  -0.0000000  -0.0000000  -0.0000000  -0.0000000
 NQMom=    0.0000000   0.0000000   0.0000000   0.0000000   0.0000000   0.0000000   0.0000000   0.0000000   0.0000000   0.0000000
 NMagM=    0.0000000   0.0000000   2.7928460   2.7928460   2.7928460   2.7928460   2.7928460   2.7928460   2.7928460   2.7928460
 AtZNuc=   6.0000000   6.0000000   1.0000000   1.0000000   1.0000000   1.0000000   1.0000000   1.0000000   1.0000000   1.0000000

  Atom        31          32          33          34          35          36          37
 IAtWgt=           1           1           1           1           1           1           1
 AtmWgt=   1.0078250   1.0078250   1.0078250   1.0078250   1.0078250   1.0078250   1.0078250
 NucSpn=           1           1           1           1           1           1           1
 AtZEff=  -0.0000000  -0.0000000  -0.0000000  -0.0000000  -0.0000000  -0.0000000  -0.0000000
 NQMom=    0.0000000   0.0000000   0.0000000   0.0000000   0.0000000   0.0000000   0.0000000
 NMagM=    2.7928460   2.7928460   2.7928460   2.7928460   2.7928460   2.7928460   2.7928460
 AtZNuc=   1.0000000   1.0000000   1.0000000   1.0000000   1.0000000   1.0000000   1.0000000
 Leave Link  101 at Tue Dec  5 03:54:39 2023, MaxMem=  2147483648 cpu:               8.8 elap:               0.4
 (Enter /opt/gaussian/g16-c01/g16/l103.exe)

 GradGradGradGradGradGradGradGradGradGradGradGradGradGradGradGradGradGrad
 Berny optimization.
 Initialization pass.
                           ----------------------------
                           !    Initial Parameters    !
                           ! (Angstroms and Degrees)  !
 --------------------------                            --------------------------
 ! Name  Definition              Value          Derivative Info.                !
 --------------------------------------------------------------------------------
 ! R1    R(1,8)                  1.4449         estimate D2E/DX2                !
 ! R2    R(1,9)                  1.3658         estimate D2E/DX2                !
 ! R3    R(1,11)                 1.3698         estimate D2E/DX2                !
 ! R4    R(2,10)                 1.3723         estimate D2E/DX2                !
 ! R5    R(2,11)                 1.3168         estimate D2E/DX2                !
 ! R6    R(3,9)                  1.3414         estimate D2E/DX2                !
 ! R7    R(3,14)                 1.3509         estimate D2E/DX2                !
 ! R8    R(4,14)                 1.4136         estimate D2E/DX2                !
 ! R9    R(4,19)                 1.4478         estimate D2E/DX2                !
 ! R10   R(4,20)                 1.4478         estimate D2E/DX2                !
 ! R11   R(5,13)                 1.3547         estimate D2E/DX2                !
 ! R12   R(5,14)                 1.3551         estimate D2E/DX2                !
 ! R13   R(6,13)                 1.4056         estimate D2E/DX2                !
 ! R14   R(6,35)                 1.011          estimate D2E/DX2                !
 ! R15   R(6,36)                 1.0109         estimate D2E/DX2                !
 ! R16   R(7,22)                 1.1605         estimate D2E/DX2                !
 ! R17   R(8,12)                 1.5085         estimate D2E/DX2                !
 ! R18   R(8,23)                 1.0967         estimate D2E/DX2                !
 ! R19   R(8,24)                 1.0965         estimate D2E/DX2                !
 ! R20   R(9,10)                 1.3857         estimate D2E/DX2                !
 ! R21   R(10,13)                1.3913         estimate D2E/DX2                !
 ! R22   R(11,22)                1.4219         estimate D2E/DX2                !
 ! R23   R(12,15)                1.3949         estimate D2E/DX2                !
 ! R24   R(12,16)                1.3947         estimate D2E/DX2                !
 ! R25   R(15,17)                1.3949         estimate D2E/DX2                !
 ! R26   R(15,25)                1.0866         estimate D2E/DX2                !
 ! R27   R(16,18)                1.3948         estimate D2E/DX2                !
 ! R28   R(16,26)                1.086          estimate D2E/DX2                !
 ! R29   R(17,21)                1.3949         estimate D2E/DX2                !
 ! R30   R(17,27)                1.086          estimate D2E/DX2                !
 ! R31   R(18,21)                1.3949         estimate D2E/DX2                !
 ! R32   R(18,28)                1.0861         estimate D2E/DX2                !
 ! R33   R(19,29)                1.0956         estimate D2E/DX2                !
 ! R34   R(19,30)                1.0957         estimate D2E/DX2                !
 ! R35   R(19,31)                1.0952         estimate D2E/DX2                !
 ! R36   R(20,32)                1.0957         estimate D2E/DX2                !
 ! R37   R(20,33)                1.0956         estimate D2E/DX2                !
 ! R38   R(20,34)                1.0953         estimate D2E/DX2                !
 ! R39   R(21,37)                1.0861         estimate D2E/DX2                !
 ! A1    A(8,1,9)              126.0079         estimate D2E/DX2                !
 ! A2    A(8,1,11)             126.8882         estimate D2E/DX2                !
 ! A3    A(9,1,11)             107.104          estimate D2E/DX2                !
 ! A4    A(10,2,11)            104.8489         estimate D2E/DX2                !
 ! A5    A(9,3,14)             110.4586         estimate D2E/DX2                !
 ! A6    A(14,4,19)            120.3161         estimate D2E/DX2                !
 ! A7    A(14,4,20)            120.3145         estimate D2E/DX2                !
 ! A8    A(19,4,20)            119.3685         estimate D2E/DX2                !
 ! A9    A(13,5,14)            117.5047         estimate D2E/DX2                !
 ! A10   A(13,6,35)            120.3543         estimate D2E/DX2                !
 ! A11   A(13,6,36)            119.2149         estimate D2E/DX2                !
 ! A12   A(35,6,36)            120.4308         estimate D2E/DX2                !
 ! A13   A(1,8,12)             113.349          estimate D2E/DX2                !
 ! A14   A(1,8,23)             107.2766         estimate D2E/DX2                !
 ! A15   A(1,8,24)             108.8063         estimate D2E/DX2                !
 ! A16   A(12,8,23)            111.5111         estimate D2E/DX2                !
 ! A17   A(12,8,24)            109.3028         estimate D2E/DX2                !
 ! A18   A(23,8,24)            106.3203         estimate D2E/DX2                !
 ! A19   A(1,9,3)              127.5918         estimate D2E/DX2                !
 ! A20   A(1,9,10)             105.1715         estimate D2E/DX2                !
 ! A21   A(3,9,10)             127.2367         estimate D2E/DX2                !
 ! A22   A(2,10,9)             110.7354         estimate D2E/DX2                !
 ! A23   A(2,10,13)            132.3894         estimate D2E/DX2                !
 ! A24   A(9,10,13)            116.8752         estimate D2E/DX2                !
 ! A25   A(1,11,2)             112.1403         estimate D2E/DX2                !
 ! A26   A(1,11,22)            124.9365         estimate D2E/DX2                !
 ! A27   A(2,11,22)            122.9232         estimate D2E/DX2                !
 ! A28   A(8,12,15)            120.0104         estimate D2E/DX2                !
 ! A29   A(8,12,16)            119.9886         estimate D2E/DX2                !
 ! A30   A(15,12,16)           120.001          estimate D2E/DX2                !
 ! A31   A(5,13,6)             120.2263         estimate D2E/DX2                !
 ! A32   A(5,13,10)            119.0936         estimate D2E/DX2                !
 ! A33   A(6,13,10)            120.6801         estimate D2E/DX2                !
 ! A34   A(3,14,4)             115.6208         estimate D2E/DX2                !
 ! A35   A(3,14,5)             128.8312         estimate D2E/DX2                !
 ! A36   A(4,14,5)             115.548          estimate D2E/DX2                !
 ! A37   A(12,15,17)           120.0022         estimate D2E/DX2                !
 ! A38   A(12,15,25)           120.8059         estimate D2E/DX2                !
 ! A39   A(17,15,25)           119.1919         estimate D2E/DX2                !
 ! A40   A(12,16,18)           120.0035         estimate D2E/DX2                !
 ! A41   A(12,16,26)           121.2272         estimate D2E/DX2                !
 ! A42   A(18,16,26)           118.7659         estimate D2E/DX2                !
 ! A43   A(15,17,21)           119.9908         estimate D2E/DX2                !
 ! A44   A(15,17,27)           120.0115         estimate D2E/DX2                !
 ! A45   A(21,17,27)           119.9977         estimate D2E/DX2                !
 ! A46   A(16,18,21)           120.0001         estimate D2E/DX2                !
 ! A47   A(16,18,28)           120.0138         estimate D2E/DX2                !
 ! A48   A(21,18,28)           119.9859         estimate D2E/DX2                !
 ! A49   A(4,19,29)            110.7994         estimate D2E/DX2                !
 ! A50   A(4,19,30)            110.8141         estimate D2E/DX2                !
 ! A51   A(4,19,31)            112.0176         estimate D2E/DX2                !
 ! A52   A(29,19,30)           108.8607         estimate D2E/DX2                !
 ! A53   A(29,19,31)           107.1002         estimate D2E/DX2                !
 ! A54   A(30,19,31)           107.08           estimate D2E/DX2                !
 ! A55   A(4,20,32)            110.7903         estimate D2E/DX2                !
 ! A56   A(4,20,33)            110.8111         estimate D2E/DX2                !
 ! A57   A(4,20,34)            112.0287         estimate D2E/DX2                !
 ! A58   A(32,20,33)           108.835          estimate D2E/DX2                !
 ! A59   A(32,20,34)           107.1204         estimate D2E/DX2                !
 ! A60   A(33,20,34)           107.0865         estimate D2E/DX2                !
 ! A61   A(17,21,18)           120.0024         estimate D2E/DX2                !
 ! A62   A(17,21,37)           119.9948         estimate D2E/DX2                !
 ! A63   A(18,21,37)           120.0028         estimate D2E/DX2                !
 ! A64   L(7,22,11,12,-1)      180.0006         estimate D2E/DX2                !
 ! A65   L(7,22,11,12,-2)      179.9934         estimate D2E/DX2                !
 ! D1    D(9,1,8,12)          -102.0309         estimate D2E/DX2                !
 ! D2    D(9,1,8,23)           134.429          estimate D2E/DX2                !
 ! D3    D(9,1,8,24)            19.7964         estimate D2E/DX2                !
 ! D4    D(11,1,8,12)           77.9341         estimate D2E/DX2                !
 ! D5    D(11,1,8,23)          -45.6059         estimate D2E/DX2                !
 ! D6    D(11,1,8,24)         -160.2386         estimate D2E/DX2                !
 ! D7    D(8,1,9,3)             -0.0211         estimate D2E/DX2                !
 ! D8    D(8,1,9,10)           179.9826         estimate D2E/DX2                !
 ! D9    D(11,1,9,3)          -179.9918         estimate D2E/DX2                !
 ! D10   D(11,1,9,10)            0.0119         estimate D2E/DX2                !
 ! D11   D(8,1,11,2)          -179.991          estimate D2E/DX2                !
 ! D12   D(8,1,11,22)            0.0294         estimate D2E/DX2                !
 ! D13   D(9,1,11,2)            -0.0207         estimate D2E/DX2                !
 ! D14   D(9,1,11,22)          179.9998         estimate D2E/DX2                !
 ! D15   D(11,2,10,9)           -0.0118         estimate D2E/DX2                !
 ! D16   D(11,2,10,13)        -179.9952         estimate D2E/DX2                !
 ! D17   D(10,2,11,1)            0.0198         estimate D2E/DX2                !
 ! D18   D(10,2,11,22)         179.9999         estimate D2E/DX2                !
 ! D19   D(14,3,9,1)          -179.9909         estimate D2E/DX2                !
 ! D20   D(14,3,9,10)            0.0046         estimate D2E/DX2                !
 ! D21   D(9,3,14,4)           179.9883         estimate D2E/DX2                !
 ! D22   D(9,3,14,5)            -0.0059         estimate D2E/DX2                !
 ! D23   D(19,4,14,3)          179.6451         estimate D2E/DX2                !
 ! D24   D(19,4,14,5)           -0.3599         estimate D2E/DX2                !
 ! D25   D(20,4,14,3)           -0.0102         estimate D2E/DX2                !
 ! D26   D(20,4,14,5)          179.9849         estimate D2E/DX2                !
 ! D27   D(14,4,19,29)         -60.5781         estimate D2E/DX2                !
 ! D28   D(14,4,19,30)          60.3758         estimate D2E/DX2                !
 ! D29   D(14,4,19,31)         179.891          estimate D2E/DX2                !
 ! D30   D(20,4,19,29)         119.0804         estimate D2E/DX2                !
 ! D31   D(20,4,19,30)        -119.9657         estimate D2E/DX2                !
 ! D32   D(20,4,19,31)          -0.4505         estimate D2E/DX2                !
 ! D33   D(14,4,20,32)          60.6347         estimate D2E/DX2                !
 ! D34   D(14,4,20,33)         -60.2786         estimate D2E/DX2                !
 ! D35   D(14,4,20,34)        -179.8075         estimate D2E/DX2                !
 ! D36   D(19,4,20,32)        -119.0238         estimate D2E/DX2                !
 ! D37   D(19,4,20,33)         120.0628         estimate D2E/DX2                !
 ! D38   D(19,4,20,34)           0.534          estimate D2E/DX2                !
 ! D39   D(14,5,13,6)          179.9961         estimate D2E/DX2                !
 ! D40   D(14,5,13,10)          -0.0177         estimate D2E/DX2                !
 ! D41   D(13,5,14,3)            0.0131         estimate D2E/DX2                !
 ! D42   D(13,5,14,4)         -179.9812         estimate D2E/DX2                !
 ! D43   D(35,6,13,5)          179.9829         estimate D2E/DX2                !
 ! D44   D(35,6,13,10)          -0.0031         estimate D2E/DX2                !
 ! D45   D(36,6,13,5)            0.0011         estimate D2E/DX2                !
 ! D46   D(36,6,13,10)        -179.9849         estimate D2E/DX2                !
 ! D47   D(1,8,12,15)         -122.9269         estimate D2E/DX2                !
 ! D48   D(1,8,12,16)           57.0734         estimate D2E/DX2                !
 ! D49   D(23,8,12,15)          -1.7398         estimate D2E/DX2                !
 ! D50   D(23,8,12,16)         178.2605         estimate D2E/DX2                !
 ! D51   D(24,8,12,15)         115.5236         estimate D2E/DX2                !
 ! D52   D(24,8,12,16)         -64.4761         estimate D2E/DX2                !
 ! D53   D(1,9,10,2)            -0.0003         estimate D2E/DX2                !
 ! D54   D(1,9,10,13)          179.9859         estimate D2E/DX2                !
 ! D55   D(3,9,10,2)          -179.9966         estimate D2E/DX2                !
 ! D56   D(3,9,10,13)           -0.0104         estimate D2E/DX2                !
 ! D57   D(2,10,13,5)          179.9991         estimate D2E/DX2                !
 ! D58   D(2,10,13,6)           -0.0147         estimate D2E/DX2                !
 ! D59   D(9,10,13,5)            0.0166         estimate D2E/DX2                !
 ! D60   D(9,10,13,6)         -179.9972         estimate D2E/DX2                !
 ! D61   D(8,12,15,17)        -179.9919         estimate D2E/DX2                !
 ! D62   D(8,12,15,25)           0.0036         estimate D2E/DX2                !
 ! D63   D(16,12,15,17)          0.0077         estimate D2E/DX2                !
 ! D64   D(16,12,15,25)       -179.9968         estimate D2E/DX2                !
 ! D65   D(8,12,16,18)         179.9987         estimate D2E/DX2                !
 ! D66   D(8,12,16,26)           0.6753         estimate D2E/DX2                !
 ! D67   D(15,12,16,18)         -0.001          estimate D2E/DX2                !
 ! D68   D(15,12,16,26)       -179.3244         estimate D2E/DX2                !
 ! D69   D(12,15,17,21)         -0.0068         estimate D2E/DX2                !
 ! D70   D(12,15,17,27)        179.9906         estimate D2E/DX2                !
 ! D71   D(25,15,17,21)        179.9977         estimate D2E/DX2                !
 ! D72   D(25,15,17,27)         -0.0049         estimate D2E/DX2                !
 ! D73   D(12,16,18,21)         -0.0068         estimate D2E/DX2                !
 ! D74   D(12,16,18,28)       -179.8526         estimate D2E/DX2                !
 ! D75   D(26,16,18,21)        179.3333         estimate D2E/DX2                !
 ! D76   D(26,16,18,28)         -0.5126         estimate D2E/DX2                !
 ! D77   D(15,17,21,18)         -0.001          estimate D2E/DX2                !
 ! D78   D(15,17,21,37)        179.9709         estimate D2E/DX2                !
 ! D79   D(27,17,21,18)       -179.9984         estimate D2E/DX2                !
 ! D80   D(27,17,21,37)         -0.0265         estimate D2E/DX2                !
 ! D81   D(16,18,21,17)          0.0077         estimate D2E/DX2                !
 ! D82   D(16,18,21,37)       -179.9642         estimate D2E/DX2                !
 ! D83   D(28,18,21,17)        179.8536         estimate D2E/DX2                !
 ! D84   D(28,18,21,37)         -0.1183         estimate D2E/DX2                !
 --------------------------------------------------------------------------------
 Trust Radius=3.00D-01 FncErr=1.00D-07 GrdErr=1.00D-06 EigMax=2.50D+02 EigMin=1.00D-04
 Number of steps in this run=    198 maximum allowed number of steps=    222.
 GradGradGradGradGradGradGradGradGradGradGradGradGradGradGradGradGradGrad

 Leave Link  103 at Tue Dec  5 03:54:39 2023, MaxMem=  2147483648 cpu:               2.0 elap:               0.1
 (Enter /opt/gaussian/g16-c01/g16/l202.exe)
                          Input orientation:                          
 ---------------------------------------------------------------------
 Center     Atomic      Atomic             Coordinates (Angstroms)
 Number     Number       Type             X           Y           Z
 ---------------------------------------------------------------------
      1          7           0       -0.456700    0.671400    0.696900
      2          7           0        0.377500    2.467600   -0.326600
      3          7           0        1.477600   -0.795000    0.608200
      4          7           0        3.524600   -1.893900    0.331100
      5          7           0        3.362700    0.290700   -0.498300
      6          7           0        3.236600    2.520700   -1.358200
      7          7           0       -2.907400    3.232700    0.523400
      8          6           0       -1.395600   -0.190300    1.377900
      9          6           0        0.831200    0.355900    0.369700
     10          6           0        1.330800    1.482500   -0.263900
     11          6           0       -0.682400    1.949200    0.258000
     12          6           0       -2.405800   -0.822800    0.453300
     13          6           0        2.648900    1.423300   -0.705400
     14          6           0        2.741900   -0.733000    0.136400
     15          6           0       -3.769800   -0.634600    0.676600
     16          6           0       -1.975800   -1.595900   -0.625000
     17          6           0       -4.703800   -1.219700   -0.178400
     18          6           0       -2.909600   -2.180900   -1.480100
     19          6           0        4.892200   -1.941000   -0.141700
     20          6           0        2.963900   -3.049800    0.998600
     21          6           0       -4.273600   -1.992900   -1.256800
     22          6           0       -1.907500    2.655900    0.404200
     23          1           0       -1.882900    0.409500    2.156100
     24          1           0       -0.838600   -0.977800    1.899400
     25          1           0       -4.119300   -0.034800    1.512600
     26          1           0       -0.919200   -1.764400   -0.811100
     27          1           0       -5.765800   -1.073400   -0.004600
     28          1           0       -2.575000   -2.784900   -2.318400
     29          1           0        4.933100   -1.805900   -1.228200
     30          1           0        5.496100   -1.161000    0.335200
     31          1           0        5.371100   -2.900300    0.081800
     32          1           0        2.099500   -3.436100    0.447100
     33          1           0        2.649300   -2.796600    2.017100
     34          1           0        3.687000   -3.868500    1.079300
     35          1           0        2.705600    3.366800   -1.514000
     36          1           0        4.195900    2.453500   -1.670000
     37          1           0       -5.000800   -2.448900   -1.922300
 ---------------------------------------------------------------------
                    Distance matrix (angstroms):
                    1          2          3          4          5
     1  N    0.000000
     2  N    2.229300   0.000000
     3  N    2.428933   3.567721   0.000000
     4  N    4.750297   5.418440   2.339781   0.000000
     5  N    4.020106   3.698620   2.440633   2.342348   0.000000
     6  N    4.613438   3.039979   4.237296   4.735543   2.393372
     7  N    3.549125   3.478282   5.954644   8.227371   7.000956
     8  C    1.444929   3.621276   3.035355   5.310971   5.137403
     9  C    1.365755   2.269351   1.341375   3.509629   2.676970
    10  C    2.185446   1.372273   2.443177   4.070241   2.367266
    11  C    1.369798   1.316770   3.509825   5.698562   4.436828
    12  C    2.467988   4.379696   3.886588   6.027589   5.951556
    13  C    3.489491   2.528500   2.831668   3.583992   1.354689
    14  C    3.538014   4.006070   1.350886   1.413583   1.355064
    15  C    3.561275   5.275429   5.250297   7.410363   7.287601
    16  C    3.032447   4.705220   3.753424   5.590826   5.663470
    17  C    4.730779   6.279949   6.245704   8.271681   8.212921
    18  C    4.346454   5.808971   5.052647   6.690422   6.812818
    19  C    6.011540   6.312880   3.679016   1.447787   2.728923
    20  C    5.063483   6.235970   2.728667   1.447773   3.682213
    21  C    5.048184   6.511072   6.163562   7.958841   8.006449
    22  C    2.475628   2.406398   4.838308   7.086165   5.846682
    23  H    2.057159   3.938145   3.890986   6.154456   5.880159
    24  H    2.076467   4.278406   2.658081   4.726131   5.000898
    25  H    3.818209   5.464968   5.720239   7.954961   7.754353
    26  H    2.901912   4.452639   2.949373   4.590071   4.759826
    27  H    5.632315   7.098063   7.274605   9.332601   9.243053
    28  H    5.052251   6.346123   5.380358   6.709609   6.930250
    29  H    6.236423   6.311036   4.041629   2.103101   2.719309
    30  H    6.238938   6.309103   4.044357   2.103324   2.711743
    31  H    6.862845   7.342832   4.457435   2.117676   3.814796
    32  H    4.844390   6.198191   2.718110   2.103033   4.047035
    33  H    4.839131   6.194014   2.713721   2.103239   4.045689
    34  H    6.158504   7.285294   3.814418   2.117834   4.460150
    35  H    4.706740   2.763789   4.830352   5.634724   3.305423
    36  H    5.515866   4.047851   4.809584   4.832694   2.597077
    37  H    6.102895   7.459513   7.149020   8.835626   8.915229
                    6          7          8          9         10
     6  N    0.000000
     7  N    6.464990   0.000000
     8  C    6.024371   3.838312   0.000000
     9  C    3.668507   4.719823   2.504684   0.000000
    10  C    2.430520   4.652460   3.595417   1.385740   0.000000
    11  C    4.277531   2.582331   2.517993   2.200470   2.131470
    12  C    6.804205   4.087003   1.508458   3.445938   4.448704
    13  C    1.405641   5.971294   4.827196   2.366266   1.391336
    14  C    3.614571   6.913113   4.353706   2.211539   2.657044
    15  C    7.948960   3.965251   2.515164   4.716405   5.602033
    16  C    6.682297   5.049958   2.514747   3.560646   4.532168
    17  C    8.856211   4.852158   3.798147   5.780930   6.612533
    18  C    7.739230   5.772442   3.797743   4.883718   5.734164
    19  C    4.911990   9.383139   6.701534   4.693506   4.941544
    20  C    6.054696   8.612072   5.227413   4.067274   4.980227
    21  C    8.762760   5.687048   4.298127   5.849901   6.668850
    22  C    5.439310   1.160477   3.051391   3.576544   3.508534
    23  H    6.558716   3.418445   1.096730   3.249683   4.163604
    24  H    6.281617   4.888928   1.096525   2.628111   3.929280
    25  H    8.299478   3.622675   2.731459   5.095716   5.929734
    26  H    5.994337   5.541195   2.737968   2.992300   3.988018
    27  H    9.787390   5.195357   4.667957   6.760430   7.547290
    28  H    7.927551   6.663169   4.667501   5.356557   6.138970
    29  H    4.649138   9.483092   7.032380   4.904309   4.971923
    30  H    4.639812   9.484663   7.037401   4.905453   4.969581
    31  H    6.001411  10.312238   7.403526   5.594320   5.970969
    32  H    6.327367   8.339530   4.859766   3.999230   5.028822
    33  H    6.325445   8.334297   4.854131   3.994705   5.025147
    34  H    6.853185   9.706811   6.281014   5.148270   5.999089
    35  H    1.010999   5.972834   6.151088   4.015871   2.646396
    36  H    1.010936   7.474960   6.895234   4.458868   3.335979
    37  H    9.636903   6.530264   5.384242   6.865303   7.635139
                   11         12         13         14         15
    11  C    0.000000
    12  C    3.269898   0.000000
    13  C    3.507459   5.651331   0.000000
    14  C    4.351415   5.158227   2.316658   0.000000
    15  C    4.047627   1.394912   6.880740   6.534810   0.000000
    16  C    3.875604   1.394745   5.523575   4.856029   2.415926
    17  C    5.138485   2.416067   7.831052   7.468228   1.394892
    18  C    5.003912   2.415841   6.669883   6.053837   2.789685
    19  C    6.809521   7.407105   4.082728   2.482014   8.798099
    20  C    6.231693   5.838712   4.797027   2.481982   7.160977
    21  C    5.543599   2.789669   7.739216   7.262616   2.415953
    22  C    1.421854   3.514551   4.848845   5.759625   3.790746
    23  H    2.722987   2.165991   5.454648   5.174289   2.615235
    24  H    3.359453   2.138071   4.971209   3.998509   3.194520
    25  H    4.162038   2.163133   7.270083   7.032601   1.086649
    26  H    3.871676   2.166864   4.785806   3.919846   3.408170
    27  H    5.919968   3.400305   8.805215   8.515675   2.154204
    28  H    5.712397   3.400116   6.899264   6.205301   3.875740
    29  H    6.916893   7.592982   3.989815   2.795462   8.985582
    30  H    6.917598   7.910016   3.983466   2.794338   9.287118
    31  H    7.758451   8.058175   5.169485   3.407765   9.436272
    32  H    6.064337   5.208369   5.024327   2.795704   6.507669
    33  H    6.059478   5.647601   5.021908   2.793573   6.904783
    34  H    7.322010   6.840349   5.680313   3.407878   8.137822
    35  H    4.077759   6.895609   2.105764   4.419672   7.920905
    36  H    5.269660   7.669745   2.094033   3.940936   8.859756
    37  H    6.538010   3.875784   8.659832   8.193410   3.400195
                   16         17         18         19         20
    16  C    0.000000
    17  C    2.789796   0.000000
    18  C    1.394777   2.416088   0.000000
    19  C    6.893627   9.623141   7.919403   0.000000
    20  C    5.399124   7.970459   6.434046   2.499612   0.000000
    21  C    2.415919   1.394940   1.394885   9.233528   7.654102
    22  C    4.375125   4.814457   5.286722   8.225899   7.525879
    23  H    3.429982   4.007700   4.581074   7.530386   6.066138
    24  H    2.836876   4.394945   4.142163   6.159214   4.423079
    25  H    3.406018   2.145952   3.876258   9.358282   7.715319
    26  H    1.086015   3.875591   2.140730   5.852491   4.472777
    27  H    3.875823   1.086027   3.400226  10.694133   9.006677
    28  H    2.154151   3.400182   1.086057   7.823635   6.461584
    29  H    6.938361   9.711619   7.855700   1.095631   3.222371
    30  H    7.545887  10.212991   8.659752   1.095686   3.227956
    31  H    7.495196  10.217423   8.457367   1.095242   2.580210
    32  H    4.598239   7.182518   5.511870   3.221984   1.095704
    33  H    5.460213   7.834214   6.596276   3.228478   1.095639
    34  H    6.335349   8.888390   7.274177   2.580427   1.095288
    35  H    6.879987   8.815839   7.893579   5.902302   6.895842
    36  H    7.455169   9.742789   8.485391   4.704483   6.239035
    37  H    3.400180   2.154142   2.154178  10.064788   8.504657
                   21         22         23         24         25
    21  C    0.000000
    22  C    5.474367   0.000000
    23  H    4.809871   2.848872   0.000000
    24  H    4.774018   4.072094   1.755294   0.000000
    25  H    3.395223   3.655199   2.369173   3.435383   0.000000
    26  H    3.391587   4.689642   3.802477   2.823481   4.316450
    27  H    2.154100   5.381568   4.684499   5.283148   2.468106
    28  H    2.153950   6.120491   5.541150   4.906173   4.962305
    29  H    9.208643   8.328637   7.925865   6.616657   9.622615
    30  H    9.933457   8.329873   7.760914   6.527535   9.752462
    31  H    9.779339   9.162604   8.238811   6.749819  10.016285
    32  H    6.752963   7.291800   5.793861   4.096931   7.167817
    33  H    7.700058   7.286675   5.553308   3.935395   7.327756
    34  H    8.505668   8.621020   7.105249   5.432289   8.707659
    35  H    8.803509   5.046341   6.577962   6.564160   8.204295
    36  H    9.574635   6.449400   7.467850   7.061206   9.244627
    37  H    1.086115   6.406254   5.875806   5.838958   4.289925
                   26         27         28         29         30
    26  H    0.000000
    27  H    4.961598   0.000000
    28  H    2.460701   4.296988   0.000000
    29  H    5.867292  10.793527   7.649741   0.000000
    30  H    6.544782  11.267366   8.649931   1.782438   0.000000
    31  H    6.454101  11.286079   8.301493   1.762287   1.762101
    32  H    3.672900   8.224921   5.470192   3.673346   4.089681
    33  H    4.668870   8.824432   6.788962   4.090135   3.688936
    34  H    5.405361   9.916796   7.206330   3.336411   3.340222
    35  H    6.321587   9.682886   8.147098   5.639172   5.630933
    36  H    6.685255  10.698039   8.585240   4.345243   4.333123
    37  H    4.285180   2.480887   2.480786   9.978857  10.813875
                   31         32         33         34         35
    31  H    0.000000
    32  H    3.335250   0.000000
    33  H    3.341307   1.782173   0.000000
    34  H    2.183715   1.762613   1.762175   0.000000
    35  H    6.994856   7.105823   7.103474   7.748414   0.000000
    36  H    5.754396   6.600333   6.599260   6.912692   1.754835
    37  H   10.573386   7.550025   8.611841   9.300685   9.663213
                   36         37
    36  H    0.000000
    37  H   10.424801   0.000000
 Stoichiometry    C15H15N7
 Framework group  C1[X(C15H15N7)]
 Deg. of freedom   105
 Full point group                 C1      NOp   1
 Largest Abelian subgroup         C1      NOp   1
 Largest concise Abelian subgroup C1      NOp   1
                         Standard orientation:                         
 ---------------------------------------------------------------------
 Center     Atomic      Atomic             Coordinates (Angstroms)
 Number     Number       Type             X           Y           Z
 ---------------------------------------------------------------------
      1          7           0        0.599371    0.719136   -0.712378
      2          7           0       -0.195761    2.560653    0.260432
      3          7           0       -1.370539   -0.697149   -0.597040
      4          7           0       -3.445072   -1.738606   -0.303346
      5          7           0       -3.233987    0.461933    0.471035
      6          7           0       -3.057732    2.709492    1.274552
      7          7           0        3.110950    3.223820   -0.590637
      8          6           0        1.520293   -0.182237   -1.366022
      9          6           0       -0.697429    0.443455   -0.384361
     10          6           0       -1.172492    1.597691    0.217578
     11          6           0        0.854026    2.001897   -0.304920
     12          6           0        2.510221   -0.815193   -0.420055
     13          6           0       -2.493790    1.581809    0.653162
     14          6           0       -2.635246   -0.592436   -0.133955
     15          6           0        3.879484   -0.665920   -0.640545
     16          6           0        2.056213   -1.549783    0.675193
     17          6           0        4.794734   -1.251438    0.234218
     18          6           0        2.971265   -2.135193    1.550052
     19          6           0       -4.815713   -1.740394    0.162946
     20          6           0       -2.909477   -2.924474   -0.938090
     21          6           0        4.340523   -1.986121    1.329567
     22          6           0        2.096704    2.674690   -0.462306
     23          1           0        2.025886    0.385451   -2.156543
     24          1           0        0.946806   -0.969078   -1.870365
     25          1           0        4.247603   -0.096368   -1.489607
     26          1           0        0.994918   -1.687779    0.859690
     27          1           0        5.860825   -1.135445    0.062612
     28          1           0        2.617928   -2.709245    2.401602
     29          1           0       -4.858625   -1.576580    1.245412
     30          1           0       -5.398061   -0.958431   -0.336987
     31          1           0       -5.316774   -2.693197   -0.038692
     32          1           0       -2.057470   -3.317393   -0.372171
     33          1           0       -2.583810   -2.705130   -1.960956
     34          1           0       -3.651932   -3.727185   -1.001905
     35          1           0       -2.507017    3.546169    1.411684
     36          1           0       -4.019901    2.673590    1.582664
     37          1           0        5.053114   -2.442450    2.010466
 ---------------------------------------------------------------------
 Rotational constants (GHZ):           0.4323283           0.1958536           0.1495658
 Leave Link  202 at Tue Dec  5 03:54:39 2023, MaxMem=  2147483648 cpu:               2.6 elap:               0.2
 (Enter /opt/gaussian/g16-c01/g16/l301.exe)
 Standard basis: 6-311++G(d,p) (5D, 7F)
 Ernie: Thresh=  0.10000D-02 Tol=  0.10000D-05 Strict=F.
 There are   611 symmetry adapted cartesian basis functions of A   symmetry.
 There are   589 symmetry adapted basis functions of A   symmetry.
   589 basis functions,   927 primitive gaussians,   611 cartesian basis functions
    77 alpha electrons       77 beta electrons
       nuclear repulsion energy      1702.8060902468 Hartrees.
 IExCor= 7252 DFT=T Ex+Corr=MN15 ExCW=0 ScaHFX=  0.440000
 ScaDFX=  1.000000  1.000000  1.000000  1.000000 ScalE2=  1.000000  1.000000
 IRadAn=      5 IRanWt=     -1 IRanGd=            0 ICorTp=0 IEmpDi=  4
 NAtoms=   37 NActive=   37 NUniq=   37 SFac= 1.00D+00 NAtFMM=   60 NAOKFM=F Big=F
 Integral buffers will be    131072 words long.
 Raffenetti 2 integral format.
 Two-electron integral symmetry is turned on.
 Leave Link  301 at Tue Dec  5 03:54:39 2023, MaxMem=  2147483648 cpu:               2.6 elap:               0.2
 (Enter /opt/gaussian/g16-c01/g16/l302.exe)
 NPDir=0 NMtPBC=     1 NCelOv=     1 NCel=       1 NClECP=     1 NCelD=      1
         NCelK=      1 NCelE2=     1 NClLst=     1 CellRange=     0.0.
 One-electron integrals computed using PRISM.
 One-electron integral symmetry used in STVInt
 NBasis=   589 RedAO= T EigKep=  1.15D-06  NBF=   589
 NBsUse=   586 1.00D-06 EigRej=  6.79D-07 NBFU=   586
 Precomputing XC quadrature grid using
 IXCGrd= 4 IRadAn=           5 IRanWt=          -1 IRanGd=           0 AccXCQ= 0.00D+00.
 Generated NRdTot=       0 NPtTot=           0 NUsed=           0 NTot=          32
 NSgBfM=   608   608   608   608   608 MxSgAt=    37 MxSgA2=    37.
 Leave Link  302 at Tue Dec  5 03:54:40 2023, MaxMem=  2147483648 cpu:              23.3 elap:               1.0
 (Enter /opt/gaussian/g16-c01/g16/l303.exe)
 DipDrv:  MaxL=1.
 Leave Link  303 at Tue Dec  5 03:54:40 2023, MaxMem=  2147483648 cpu:               5.6 elap:               0.3
 (Enter /opt/gaussian/g16-c01/g16/l401.exe)
 ExpMin= 3.60D-02 ExpMax= 6.29D+03 ExpMxC= 9.49D+02 IAcc=3 IRadAn=         5 AccDes= 0.00D+00
 Harris functional with IExCor= 1009 and IRadAn=       5 diagonalized for initial guess.
 HarFok:  IExCor= 1009 AccDes= 0.00D+00 IRadAn=         5 IDoV= 1 UseB2=F ITyADJ=14
 ICtDFT=  3500011 ScaDFX=  1.000000  1.000000  1.000000  1.000000
 FoFCou: FMM=F IPFlag=           0 FMFlag=      100000 FMFlg1=           0
         NFxFlg=           0 DoJE=T BraDBF=F KetDBF=T FulRan=T
         wScrn=  0.000000 ICntrl=       500 IOpCl=  0 I1Cent=   200000004 NGrid=           0
         NMat0=    1 NMatS0=      1 NMatT0=    0 NMatD0=    1 NMtDS0=    0 NMtDT0=    0
 Petite list used in FoFCou.
 Harris En= -963.200189336792    
 JPrj=0 DoOrth=F DoCkMO=F.
 Leave Link  401 at Tue Dec  5 03:54:43 2023, MaxMem=  2147483648 cpu:              56.0 elap:               2.3
 (Enter /opt/gaussian/g16-c01/g16/l502.exe)
 Integral symmetry usage will be decided dynamically.
 Closed shell SCF:
 Using DIIS extrapolation, IDIIS=  1040.
 NGot=  2147483648 LenX=  2146714494 LenY=  2146340562
 Requested convergence on RMS density matrix=1.00D-08 within 128 cycles.
 Requested convergence on MAX density matrix=1.00D-06.
 Requested convergence on             energy=1.00D-06.
 No special actions if energy rises.
 Fock matrices will be formed incrementally for  20 cycles.

 Cycle   1  Pass 1  IDiag  1:
 FoFJK:  IHMeth= 1 ICntrl=       0 DoSepK=F KAlg= 0 I1Cent=           0 FoldK=F
 IRaf= 810000000 NMat=       1 IRICut=       1 DoRegI=T DoRafI=F ISym2E= 0 IDoP0=0 IntGTp=1.
 FoFCou: FMM=F IPFlag=           0 FMFlag=      100000 FMFlg1=           0
         NFxFlg=           0 DoJE=F BraDBF=F KetDBF=F FulRan=T
         wScrn=  0.000000 ICntrl=         0 IOpCl=  0 I1Cent=           0 NGrid=           0
         NMat0=    1 NMatS0=      1 NMatT0=    0 NMatD0=    1 NMtDS0=    0 NMtDT0=    0
 Symmetry not used in FoFCou.
 E= -962.598922254470    
 DIIS: error= 1.73D-02 at cycle   1 NSaved=   1.
 NSaved= 1 IEnMin= 1 EnMin= -962.598922254470     IErMin= 1 ErrMin= 1.73D-02
 ErrMax= 1.73D-02  0.00D+00 EMaxC= 1.00D-01 BMatC= 5.28D-01 BMatP= 5.28D-01
 IDIUse=3 WtCom= 8.27D-01 WtEn= 1.73D-01
 Coeff-Com:  0.100D+01
 Coeff-En:   0.100D+01
 Coeff:      0.100D+01
 Gap=     0.298 Goal=   None    Shift=    0.000
 GapD=    0.298 DampG=1.000 DampE=0.500 DampFc=0.5000 IDamp=-1.
 Damping current iteration by 5.00D-01
 RMSDP=1.83D-02 MaxDP=1.88D+00              OVMax= 1.49D-01

 Cycle   2  Pass 1  IDiag  1:
 RMSU=  7.73D-03    CP:  9.12D-01
 E= -962.774736203218     Delta-E=       -0.175813948747 Rises=F Damp=T
 DIIS: error= 9.56D-03 at cycle   2 NSaved=   2.
 NSaved= 2 IEnMin= 2 EnMin= -962.774736203218     IErMin= 2 ErrMin= 9.56D-03
 ErrMax= 9.56D-03  0.00D+00 EMaxC= 1.00D-01 BMatC= 6.75D-02 BMatP= 5.28D-01
 IDIUse=3 WtCom= 9.04D-01 WtEn= 9.56D-02
 Coeff-Com: -0.189D-01 0.102D+01
 Coeff-En:   0.493D-01 0.951D+00
 Coeff:     -0.124D-01 0.101D+01
 Gap=     0.236 Goal=   None    Shift=    0.000
 RMSDP=1.73D-02 MaxDP=2.26D+00 DE=-1.76D-01 OVMax= 1.54D-01

 Cycle   3  Pass 1  IDiag  1:
 RMSU=  7.16D-03    CP:  6.34D-01  7.95D-01
 E= -962.930296891114     Delta-E=       -0.155560687896 Rises=F Damp=F
 DIIS: error= 8.61D-03 at cycle   3 NSaved=   3.
 NSaved= 3 IEnMin= 3 EnMin= -962.930296891114     IErMin= 3 ErrMin= 8.61D-03
 ErrMax= 8.61D-03  0.00D+00 EMaxC= 1.00D-01 BMatC= 7.12D-02 BMatP= 6.75D-02
 IDIUse=3 WtCom= 9.14D-01 WtEn= 8.61D-02
 Coeff-Com: -0.117D+00 0.582D+00 0.536D+00
 Coeff-En:   0.000D+00 0.000D+00 0.100D+01
 Coeff:     -0.107D+00 0.532D+00 0.576D+00
 Gap=     0.205 Goal=   None    Shift=    0.000
 RMSDP=3.17D-03 MaxDP=2.59D-01 DE=-1.56D-01 OVMax= 8.39D-02

 Cycle   4  Pass 1  IDiag  1:
 RMSU=  1.99D-03    CP:  6.49D-01  1.04D+00  8.14D-01
 E= -962.972723409342     Delta-E=       -0.042426518228 Rises=F Damp=F
 DIIS: error= 4.85D-03 at cycle   4 NSaved=   4.
 NSaved= 4 IEnMin= 4 EnMin= -962.972723409342     IErMin= 4 ErrMin= 4.85D-03
 ErrMax= 4.85D-03  0.00D+00 EMaxC= 1.00D-01 BMatC= 2.24D-02 BMatP= 6.75D-02
 IDIUse=3 WtCom= 9.52D-01 WtEn= 4.85D-02
 Coeff-Com: -0.551D-01 0.171D+00 0.387D+00 0.498D+00
 Coeff-En:   0.000D+00 0.000D+00 0.280D+00 0.720D+00
 Coeff:     -0.524D-01 0.163D+00 0.381D+00 0.508D+00
 Gap=     0.203 Goal=   None    Shift=    0.000
 RMSDP=1.96D-03 MaxDP=2.21D-01 DE=-4.24D-02 OVMax= 4.23D-02

 Cycle   5  Pass 1  IDiag  1:
 RMSU=  7.18D-04    CP:  6.21D-01  1.03D+00  8.28D-01  5.09D-01
 E= -962.991552547140     Delta-E=       -0.018829137798 Rises=F Damp=F
 DIIS: error= 7.44D-04 at cycle   5 NSaved=   5.
 NSaved= 5 IEnMin= 5 EnMin= -962.991552547140     IErMin= 5 ErrMin= 7.44D-04
 ErrMax= 7.44D-04  0.00D+00 EMaxC= 1.00D-01 BMatC= 6.68D-04 BMatP= 2.24D-02
 IDIUse=3 WtCom= 9.93D-01 WtEn= 7.44D-03
 Coeff-Com: -0.206D-01 0.551D-01 0.172D+00 0.266D+00 0.528D+00
 Coeff-En:   0.000D+00 0.000D+00 0.000D+00 0.000D+00 0.100D+01
 Coeff:     -0.205D-01 0.546D-01 0.170D+00 0.264D+00 0.531D+00
 Gap=     0.204 Goal=   None    Shift=    0.000
 RMSDP=3.22D-04 MaxDP=3.08D-02 DE=-1.88D-02 OVMax= 6.07D-03

 Cycle   6  Pass 1  IDiag  1:
 RMSU=  2.00D-04    CP:  6.20D-01  9.99D-01  8.31D-01  5.02D-01  8.82D-01
 E= -962.992043904407     Delta-E=       -0.000491357268 Rises=F Damp=F
 DIIS: error= 3.00D-04 at cycle   6 NSaved=   6.
 NSaved= 6 IEnMin= 6 EnMin= -962.992043904407     IErMin= 6 ErrMin= 3.00D-04
 ErrMax= 3.00D-04  0.00D+00 EMaxC= 1.00D-01 BMatC= 7.18D-05 BMatP= 6.68D-04
 IDIUse=3 WtCom= 9.97D-01 WtEn= 3.00D-03
 Coeff-Com: -0.495D-02 0.110D-01 0.490D-01 0.837D-01 0.287D+00 0.574D+00
 Coeff-En:   0.000D+00 0.000D+00 0.000D+00 0.000D+00 0.398D-01 0.960D+00
 Coeff:     -0.493D-02 0.109D-01 0.488D-01 0.834D-01 0.286D+00 0.575D+00
 Gap=     0.204 Goal=   None    Shift=    0.000
 RMSDP=1.57D-04 MaxDP=2.52D-02 DE=-4.91D-04 OVMax= 2.88D-03

 Cycle   7  Pass 1  IDiag  1:
 RMSU=  9.07D-05    CP:  6.21D-01  1.01D+00  8.39D-01  5.17D-01  8.24D-01
                    CP:  6.78D-01
 E= -962.992098071600     Delta-E=       -0.000054167192 Rises=F Damp=F
 DIIS: error= 1.02D-04 at cycle   7 NSaved=   7.
 NSaved= 7 IEnMin= 7 EnMin= -962.992098071600     IErMin= 7 ErrMin= 1.02D-04
 ErrMax= 1.02D-04  0.00D+00 EMaxC= 1.00D-01 BMatC= 9.27D-06 BMatP= 7.18D-05
 IDIUse=3 WtCom= 9.99D-01 WtEn= 1.02D-03
 Coeff-Com:  0.431D-04-0.146D-02 0.400D-02 0.975D-02 0.878D-01 0.321D+00
 Coeff-Com:  0.579D+00
 Coeff-En:   0.000D+00 0.000D+00 0.000D+00 0.000D+00 0.000D+00 0.562D-01
 Coeff-En:   0.944D+00
 Coeff:      0.430D-04-0.146D-02 0.400D-02 0.974D-02 0.877D-01 0.321D+00
 Coeff:      0.579D+00
 Gap=     0.204 Goal=   None    Shift=    0.000
 RMSDP=4.81D-05 MaxDP=4.25D-03 DE=-5.42D-05 OVMax= 7.11D-04

 Cycle   8  Pass 1  IDiag  1:
 RMSU=  3.20D-05    CP:  6.21D-01  1.00D+00  8.41D-01  5.07D-01  8.26D-01
                    CP:  6.71D-01  9.07D-01
 E= -962.992105444837     Delta-E=       -0.000007373237 Rises=F Damp=F
 DIIS: error= 2.77D-05 at cycle   8 NSaved=   8.
 NSaved= 8 IEnMin= 8 EnMin= -962.992105444837     IErMin= 8 ErrMin= 2.77D-05
 ErrMax= 2.77D-05  0.00D+00 EMaxC= 1.00D-01 BMatC= 8.24D-07 BMatP= 9.27D-06
 IDIUse=1 WtCom= 1.00D+00 WtEn= 0.00D+00
 Coeff-Com:  0.713D-03-0.232D-02-0.406D-02-0.582D-02 0.989D-02 0.981D-01
 Coeff-Com:  0.285D+00 0.618D+00
 Coeff:      0.713D-03-0.232D-02-0.406D-02-0.582D-02 0.989D-02 0.981D-01
 Coeff:      0.285D+00 0.618D+00
 Gap=     0.204 Goal=   None    Shift=    0.000
 RMSDP=2.29D-05 MaxDP=4.72D-03 DE=-7.37D-06 OVMax= 2.74D-04

 Cycle   9  Pass 1  IDiag  1:
 RMSU=  8.51D-06    CP:  6.20D-01  1.00D+00  8.40D-01  5.06D-01  8.39D-01
                    CP:  6.91D-01  9.50D-01  9.10D-01
 E= -962.992106143390     Delta-E=       -0.000000698554 Rises=F Damp=F
 DIIS: error= 2.37D-05 at cycle   9 NSaved=   9.
 NSaved= 9 IEnMin= 9 EnMin= -962.992106143390     IErMin= 9 ErrMin= 2.37D-05
 ErrMax= 2.37D-05  0.00D+00 EMaxC= 1.00D-01 BMatC= 1.01D-07 BMatP= 8.24D-07
 IDIUse=1 WtCom= 1.00D+00 WtEn= 0.00D+00
 Coeff-Com:  0.368D-03-0.102D-02-0.230D-02-0.396D-02-0.442D-02 0.150D-01
 Coeff-Com:  0.677D-01 0.296D+00 0.633D+00
 Coeff:      0.368D-03-0.102D-02-0.230D-02-0.396D-02-0.442D-02 0.150D-01
 Coeff:      0.677D-01 0.296D+00 0.633D+00
 Gap=     0.204 Goal=   None    Shift=    0.000
 RMSDP=5.73D-06 MaxDP=6.27D-04 DE=-6.99D-07 OVMax= 1.09D-04

 Cycle  10  Pass 1  IDiag  1:
 RMSU=  2.91D-06    CP:  6.20D-01  1.00D+00  8.40D-01  5.05D-01  8.39D-01
                    CP:  6.93D-01  9.56D-01  9.71D-01  9.07D-01
 E= -962.992106241567     Delta-E=       -0.000000098176 Rises=F Damp=F
 DIIS: error= 4.74D-06 at cycle  10 NSaved=  10.
 NSaved=10 IEnMin=10 EnMin= -962.992106241567     IErMin=10 ErrMin= 4.74D-06
 ErrMax= 4.74D-06  0.00D+00 EMaxC= 1.00D-01 BMatC= 1.44D-08 BMatP= 1.01D-07
 IDIUse=1 WtCom= 1.00D+00 WtEn= 0.00D+00
 Coeff-Com:  0.959D-04-0.215D-03-0.587D-03-0.124D-02-0.383D-02-0.589D-02
 Coeff-Com: -0.910D-02 0.587D-01 0.318D+00 0.644D+00
 Coeff:      0.959D-04-0.215D-03-0.587D-03-0.124D-02-0.383D-02-0.589D-02
 Coeff:     -0.910D-02 0.587D-01 0.318D+00 0.644D+00
 Gap=     0.204 Goal=   None    Shift=    0.000
 RMSDP=1.95D-06 MaxDP=1.83D-04 DE=-9.82D-08 OVMax= 4.69D-05

 Cycle  11  Pass 1  IDiag  1:
 RMSU=  1.01D-06    CP:  6.20D-01  1.00D+00  8.40D-01  5.05D-01  8.39D-01
                    CP:  6.93D-01  9.65D-01  9.94D-01  1.01D+00  1.11D+00
 E= -962.992106255251     Delta-E=       -0.000000013684 Rises=F Damp=F
 DIIS: error= 3.30D-06 at cycle  11 NSaved=  11.
 NSaved=11 IEnMin=11 EnMin= -962.992106255251     IErMin=11 ErrMin= 3.30D-06
 ErrMax= 3.30D-06  0.00D+00 EMaxC= 1.00D-01 BMatC= 1.49D-09 BMatP= 1.44D-08
 IDIUse=1 WtCom= 1.00D+00 WtEn= 0.00D+00
 Coeff-Com: -0.131D-04 0.619D-04 0.113D-03 0.667D-04-0.107D-02-0.457D-02
 Coeff-Com: -0.157D-01-0.189D-01 0.514D-01 0.289D+00 0.700D+00
 Coeff:     -0.131D-04 0.619D-04 0.113D-03 0.667D-04-0.107D-02-0.457D-02
 Coeff:     -0.157D-01-0.189D-01 0.514D-01 0.289D+00 0.700D+00
 Gap=     0.204 Goal=   None    Shift=    0.000
 RMSDP=7.41D-07 MaxDP=8.71D-05 DE=-1.37D-08 OVMax= 1.46D-05

 Cycle  12  Pass 1  IDiag  1:
 RMSU=  3.38D-07    CP:  6.20D-01  1.00D+00  8.40D-01  5.05D-01  8.38D-01
                    CP:  6.93D-01  9.65D-01  1.00D+00  1.03D+00  1.24D+00
                    CP:  1.07D+00
 E= -962.992106256760     Delta-E=       -0.000000001509 Rises=F Damp=F
 DIIS: error= 6.82D-07 at cycle  12 NSaved=  12.
 NSaved=12 IEnMin=12 EnMin= -962.992106256760     IErMin=12 ErrMin= 6.82D-07
 ErrMax= 6.82D-07  0.00D+00 EMaxC= 1.00D-01 BMatC= 1.96D-10 BMatP= 1.49D-09
 IDIUse=1 WtCom= 1.00D+00 WtEn= 0.00D+00
 Coeff-Com: -0.159D-04 0.514D-04 0.112D-03 0.150D-03-0.182D-03-0.148D-02
 Coeff-Com: -0.658D-02-0.138D-01-0.708D-02 0.677D-01 0.330D+00 0.631D+00
 Coeff:     -0.159D-04 0.514D-04 0.112D-03 0.150D-03-0.182D-03-0.148D-02
 Coeff:     -0.658D-02-0.138D-01-0.708D-02 0.677D-01 0.330D+00 0.631D+00
 Gap=     0.204 Goal=   None    Shift=    0.000
 RMSDP=2.58D-07 MaxDP=2.32D-05 DE=-1.51D-09 OVMax= 5.90D-06

 Cycle  13  Pass 1  IDiag  1:
 RMSU=  1.42D-07    CP:  6.20D-01  1.00D+00  8.40D-01  5.05D-01  8.38D-01
                    CP:  6.92D-01  9.64D-01  1.01D+00  1.04D+00  1.26D+00
                    CP:  1.14D+00  8.68D-01
 E= -962.992106257014     Delta-E=       -0.000000000254 Rises=F Damp=F
 DIIS: error= 2.54D-07 at cycle  13 NSaved=  13.
 NSaved=13 IEnMin=13 EnMin= -962.992106257014     IErMin=13 ErrMin= 2.54D-07
 ErrMax= 2.54D-07  0.00D+00 EMaxC= 1.00D-01 BMatC= 2.29D-11 BMatP= 1.96D-10
 IDIUse=1 WtCom= 1.00D+00 WtEn= 0.00D+00
 Coeff-Com: -0.573D-05 0.155D-04 0.374D-04 0.602D-04 0.537D-04-0.127D-05
 Coeff-Com: -0.768D-03-0.332D-02-0.108D-01-0.118D-01 0.517D-01 0.289D+00
 Coeff-Com:  0.686D+00
 Coeff:     -0.573D-05 0.155D-04 0.374D-04 0.602D-04 0.537D-04-0.127D-05
 Coeff:     -0.768D-03-0.332D-02-0.108D-01-0.118D-01 0.517D-01 0.289D+00
 Coeff:      0.686D+00
 Gap=     0.204 Goal=   None    Shift=    0.000
 RMSDP=9.17D-08 MaxDP=9.87D-06 DE=-2.54D-10 OVMax= 1.90D-06

 Cycle  14  Pass 1  IDiag  1:
 RMSU=  4.66D-08    CP:  6.20D-01  1.00D+00  8.40D-01  5.05D-01  8.38D-01
                    CP:  6.93D-01  9.64D-01  1.01D+00  1.04D+00  1.27D+00
                    CP:  1.16D+00  9.39D-01  9.28D-01
 E= -962.992106257033     Delta-E=       -0.000000000019 Rises=F Damp=F
 DIIS: error= 7.77D-08 at cycle  14 NSaved=  14.
 NSaved=14 IEnMin=14 EnMin= -962.992106257033     IErMin=14 ErrMin= 7.77D-08
 ErrMax= 7.77D-08  0.00D+00 EMaxC= 1.00D-01 BMatC= 2.95D-12 BMatP= 2.29D-11
 IDIUse=1 WtCom= 1.00D+00 WtEn= 0.00D+00
 Coeff-Com: -0.828D-06 0.128D-05 0.464D-05 0.108D-04 0.400D-04 0.158D-03
 Coeff-Com:  0.381D-03 0.790D-04-0.424D-02-0.132D-01-0.122D-01 0.642D-01
 Coeff-Com:  0.328D+00 0.637D+00
 Coeff:     -0.828D-06 0.128D-05 0.464D-05 0.108D-04 0.400D-04 0.158D-03
 Coeff:      0.381D-03 0.790D-04-0.424D-02-0.132D-01-0.122D-01 0.642D-01
 Coeff:      0.328D+00 0.637D+00
 Gap=     0.204 Goal=   None    Shift=    0.000
 RMSDP=3.43D-08 MaxDP=3.82D-06 DE=-1.91D-11 OVMax= 6.96D-07

 Cycle  15  Pass 1  IDiag  1:
 RMSU=  1.59D-08    CP:  6.20D-01  1.00D+00  8.40D-01  5.05D-01  8.38D-01
                    CP:  6.93D-01  9.64D-01  1.01D+00  1.04D+00  1.28D+00
                    CP:  1.17D+00  9.55D-01  1.02D+00  9.90D-01
 E= -962.992106256951     Delta-E=        0.000000000082 Rises=F Damp=F
 DIIS: error= 1.84D-08 at cycle  15 NSaved=  15.
 NSaved=15 IEnMin=14 EnMin= -962.992106257033     IErMin=15 ErrMin= 1.84D-08
 ErrMax= 1.84D-08  0.00D+00 EMaxC= 1.00D-01 BMatC= 3.36D-13 BMatP= 2.95D-12
 IDIUse=1 WtCom= 1.00D+00 WtEn= 0.00D+00
 Coeff-Com:  0.203D-06-0.965D-06-0.161D-05-0.968D-06 0.135D-04 0.697D-04
 Coeff-Com:  0.260D-03 0.369D-03-0.803D-03-0.467D-02-0.111D-01-0.450D-02
 Coeff-Com:  0.715D-01 0.291D+00 0.657D+00
 Coeff:      0.203D-06-0.965D-06-0.161D-05-0.968D-06 0.135D-04 0.697D-04
 Coeff:      0.260D-03 0.369D-03-0.803D-03-0.467D-02-0.111D-01-0.450D-02
 Coeff:      0.715D-01 0.291D+00 0.657D+00
 Gap=     0.204 Goal=   None    Shift=    0.000
 RMSDP=1.10D-08 MaxDP=1.61D-06 DE= 8.19D-11 OVMax= 2.90D-07

 Cycle  16  Pass 1  IDiag  1:
 RMSU=  4.96D-09    CP:  6.20D-01  1.00D+00  8.40D-01  5.05D-01  8.38D-01
                    CP:  6.93D-01  9.64D-01  1.01D+00  1.04D+00  1.28D+00
                    CP:  1.17D+00  9.59D-01  1.04D+00  1.05D+00  1.11D+00
 E= -962.992106257034     Delta-E=       -0.000000000083 Rises=F Damp=F
 DIIS: error= 7.59D-09 at cycle  16 NSaved=  16.
 NSaved=16 IEnMin=16 EnMin= -962.992106257034     IErMin=16 ErrMin= 7.59D-09
 ErrMax= 7.59D-09  0.00D+00 EMaxC= 1.00D-01 BMatC= 5.25D-14 BMatP= 3.36D-13
 IDIUse=1 WtCom= 1.00D+00 WtEn= 0.00D+00
 Coeff-Com:  0.213D-06-0.581D-06-0.131D-05-0.186D-05-0.404D-06 0.257D-05
 Coeff-Com:  0.505D-04 0.141D-03 0.338D-03 0.252D-03-0.275D-02-0.125D-01
 Coeff-Com: -0.208D-01 0.322D-01 0.305D+00 0.698D+00
 Coeff:      0.213D-06-0.581D-06-0.131D-05-0.186D-05-0.404D-06 0.257D-05
 Coeff:      0.505D-04 0.141D-03 0.338D-03 0.252D-03-0.275D-02-0.125D-01
 Coeff:     -0.208D-01 0.322D-01 0.305D+00 0.698D+00
 Gap=     0.204 Goal=   None    Shift=    0.000
 RMSDP=5.32D-09 MaxDP=7.23D-07 DE=-8.32D-11 OVMax= 1.38D-07

 SCF Done:  E(RMN15) =  -962.992106257     A.U. after   16 cycles
            NFock= 16  Conv=0.53D-08     -V/T= 2.0038
 KE= 9.593631178652D+02 PE=-5.646965928398D+03 EE= 2.021804614029D+03
 Leave Link  502 at Tue Dec  5 03:57:11 2023, MaxMem=  2147483648 cpu:            3837.7 elap:             148.4
 (Enter /opt/gaussian/g16-c01/g16/l601.exe)
 Copying SCF densities to generalized density rwf, IOpCl= 0 IROHF=0.

 **********************************************************************

            Population analysis using the SCF Density.

 **********************************************************************

 Orbital symmetries:
       Occupied  (A) (A) (A) (A) (A) (A) (A) (A) (A) (A) (A) (A)
                 (A) (A) (A) (A) (A) (A) (A) (A) (A) (A) (A) (A)
                 (A) (A) (A) (A) (A) (A) (A) (A) (A) (A) (A) (A)
                 (A) (A) (A) (A) (A) (A) (A) (A) (A) (A) (A) (A)
                 (A) (A) (A) (A) (A) (A) (A) (A) (A) (A) (A) (A)
                 (A) (A) (A) (A) (A) (A) (A) (A) (A) (A) (A) (A)
                 (A) (A) (A) (A) (A)
       Virtual   (A) (A) (A) (A) (A) (A) (A) (A) (A) (A) (A) (A)
                 (A) (A) (A) (A) (A) (A) (A) (A) (A) (A) (A) (A)
                 (A) (A) (A) (A) (A) (A) (A) (A) (A) (A) (A) (A)
                 (A) (A) (A) (A) (A) (A) (A) (A) (A) (A) (A) (A)
                 (A) (A) (A) (A) (A) (A) (A) (A) (A) (A) (A) (A)
                 (A) (A) (A) (A) (A) (A) (A) (A) (A) (A) (A) (A)
                 (A) (A) (A) (A) (A) (A) (A) (A) (A) (A) (A) (A)
                 (A) (A) (A) (A) (A) (A) (A) (A) (A) (A) (A) (A)
                 (A) (A) (A) (A) (A) (A) (A) (A) (A) (A) (A) (A)
                 (A) (A) (A) (A) (A) (A) (A) (A) (A) (A) (A) (A)
                 (A) (A) (A) (A) (A) (A) (A) (A) (A) (A) (A) (A)
                 (A) (A) (A) (A) (A) (A) (A) (A) (A) (A) (A) (A)
                 (A) (A) (A) (A) (A) (A) (A) (A) (A) (A) (A) (A)
                 (A) (A) (A) (A) (A) (A) (A) (A) (A) (A) (A) (A)
                 (A) (A) (A) (A) (A) (A) (A) (A) (A) (A) (A) (A)
                 (A) (A) (A) (A) (A) (A) (A) (A) (A) (A) (A) (A)
                 (A) (A) (A) (A) (A) (A) (A) (A) (A) (A) (A) (A)
                 (A) (A) (A) (A) (A) (A) (A) (A) (A) (A) (A) (A)
                 (A) (A) (A) (A) (A) (A) (A) (A) (A) (A) (A) (A)
                 (A) (A) (A) (A) (A) (A) (A) (A) (A) (A) (A) (A)
                 (A) (A) (A) (A) (A) (A) (A) (A) (A) (A) (A) (A)
                 (A) (A) (A) (A) (A) (A) (A) (A) (A) (A) (A) (A)
                 (A) (A) (A) (A) (A) (A) (A) (A) (A) (A) (A) (A)
                 (A) (A) (A) (A) (A) (A) (A) (A) (A) (A) (A) (A)
                 (A) (A) (A) (A) (A) (A) (A) (A) (A) (A) (A) (A)
                 (A) (A) (A) (A) (A) (A) (A) (A) (A) (A) (A) (A)
                 (A) (A) (A) (A) (A) (A) (A) (A) (A) (A) (A) (A)
                 (A) (A) (A) (A) (A) (A) (A) (A) (A) (A) (A) (A)
                 (A) (A) (A) (A) (A) (A) (A) (A) (A) (A) (A) (A)
                 (A) (A) (A) (A) (A) (A) (A) (A) (A) (A) (A) (A)
                 (A) (A) (A) (A) (A) (A) (A) (A) (A) (A) (A) (A)
                 (A) (A) (A) (A) (A) (A) (A) (A) (A) (A) (A) (A)
                 (A) (A) (A) (A) (A) (A) (A) (A) (A) (A) (A) (A)
                 (A) (A) (A) (A) (A) (A) (A) (A) (A) (A) (A) (A)
                 (A) (A) (A) (A) (A) (A) (A) (A) (A) (A) (A) (A)
                 (A) (A) (A) (A) (A) (A) (A) (A) (A) (A) (A) (A)
                 (A) (A) (A) (A) (A) (A) (A) (A) (A) (A) (A) (A)
                 (A) (A) (A) (A) (A) (A) (A) (A) (A) (A) (A) (A)
                 (A) (A) (A) (A) (A) (A) (A) (A) (A) (A) (A) (A)
                 (A) (A) (A) (A) (A) (A) (A) (A) (A) (A) (A) (A)
                 (A) (A) (A) (A) (A) (A) (A) (A) (A) (A) (A) (A)
                 (A) (A) (A) (A) (A) (A) (A) (A) (A) (A) (A) (A)
                 (A) (A) (A) (A) (A)
 The electronic state is 1-A.
 Alpha  occ. eigenvalues --  -14.16972 -14.11995 -14.11398 -14.10965 -14.10927
 Alpha  occ. eigenvalues --  -14.09061 -14.09004 -10.15802 -10.15268 -10.14911
 Alpha  occ. eigenvalues --  -10.12836 -10.10408 -10.09430 -10.07336 -10.06705
 Alpha  occ. eigenvalues --  -10.06593 -10.06403 -10.05299 -10.05208 -10.05144
 Alpha  occ. eigenvalues --  -10.05125 -10.05036  -1.11146  -1.04947  -0.99545
 Alpha  occ. eigenvalues --   -0.97329  -0.96124  -0.95491  -0.91712  -0.91231
 Alpha  occ. eigenvalues --   -0.83823  -0.82847  -0.79995  -0.77090  -0.76175
 Alpha  occ. eigenvalues --   -0.75554  -0.72577  -0.67106  -0.66735  -0.65842
 Alpha  occ. eigenvalues --   -0.65037  -0.62122  -0.59222  -0.58126  -0.57320
 Alpha  occ. eigenvalues --   -0.56713  -0.54522  -0.53716  -0.52465  -0.52063
 Alpha  occ. eigenvalues --   -0.51304  -0.50411  -0.50197  -0.48671  -0.47510
 Alpha  occ. eigenvalues --   -0.47242  -0.45859  -0.45012  -0.44690  -0.44055
 Alpha  occ. eigenvalues --   -0.42783  -0.42073  -0.41935  -0.41539  -0.40306
 Alpha  occ. eigenvalues --   -0.40057  -0.39472  -0.39106  -0.38574  -0.35304
 Alpha  occ. eigenvalues --   -0.34335  -0.32114  -0.31200  -0.29857  -0.29405
 Alpha  occ. eigenvalues --   -0.28927  -0.24517
 Alpha virt. eigenvalues --   -0.04094  -0.00391   0.00231   0.01589   0.02655
 Alpha virt. eigenvalues --    0.03477   0.03565   0.03798   0.03936   0.04421
 Alpha virt. eigenvalues --    0.04998   0.05829   0.06316   0.06402   0.06643
 Alpha virt. eigenvalues --    0.07752   0.07900   0.08428   0.08728   0.08940
 Alpha virt. eigenvalues --    0.09258   0.10105   0.10278   0.10937   0.11380
 Alpha virt. eigenvalues --    0.11582   0.12357   0.12504   0.12878   0.13223
 Alpha virt. eigenvalues --    0.13587   0.13815   0.13841   0.14312   0.14617
 Alpha virt. eigenvalues --    0.14652   0.15047   0.15200   0.15445   0.15552
 Alpha virt. eigenvalues --    0.15815   0.15917   0.16007   0.16372   0.16413
 Alpha virt. eigenvalues --    0.16923   0.17218   0.17263   0.17598   0.18001
 Alpha virt. eigenvalues --    0.18108   0.18572   0.18803   0.18955   0.19160
 Alpha virt. eigenvalues --    0.19685   0.19848   0.20339   0.20485   0.20822
 Alpha virt. eigenvalues --    0.21213   0.21318   0.21694   0.21981   0.22218
 Alpha virt. eigenvalues --    0.22352   0.22653   0.22911   0.23272   0.23381
 Alpha virt. eigenvalues --    0.24051   0.24365   0.24509   0.24528   0.25611
 Alpha virt. eigenvalues --    0.25867   0.25937   0.26061   0.26410   0.27131
 Alpha virt. eigenvalues --    0.27220   0.27329   0.27700   0.27972   0.28403
 Alpha virt. eigenvalues --    0.28865   0.29028   0.29326   0.29704   0.29925
 Alpha virt. eigenvalues --    0.30383   0.30420   0.30928   0.31442   0.31506
 Alpha virt. eigenvalues --    0.31538   0.31974   0.32068   0.32516   0.32822
 Alpha virt. eigenvalues --    0.33207   0.33437   0.33455   0.33874   0.33974
 Alpha virt. eigenvalues --    0.34490   0.34685   0.35015   0.35305   0.35444
 Alpha virt. eigenvalues --    0.35748   0.36051   0.36321   0.36742   0.37130
 Alpha virt. eigenvalues --    0.37465   0.37770   0.38012   0.38418   0.38567
 Alpha virt. eigenvalues --    0.38794   0.39510   0.40179   0.40753   0.41369
 Alpha virt. eigenvalues --    0.41634   0.41698   0.41892   0.42083   0.42952
 Alpha virt. eigenvalues --    0.43335   0.43659   0.44465   0.44945   0.45724
 Alpha virt. eigenvalues --    0.45954   0.47158   0.47404   0.48225   0.49546
 Alpha virt. eigenvalues --    0.50441   0.51059   0.53102   0.53883   0.54823
 Alpha virt. eigenvalues --    0.56169   0.57453   0.58367   0.58379   0.59382
 Alpha virt. eigenvalues --    0.60015   0.60053   0.60377   0.61577   0.61616
 Alpha virt. eigenvalues --    0.62282   0.62768   0.63051   0.64133   0.64376
 Alpha virt. eigenvalues --    0.64737   0.65587   0.66329   0.66558   0.67137
 Alpha virt. eigenvalues --    0.67784   0.68844   0.68999   0.69437   0.69938
 Alpha virt. eigenvalues --    0.70473   0.70961   0.71313   0.72713   0.73111
 Alpha virt. eigenvalues --    0.73426   0.74241   0.74668   0.75318   0.75454
 Alpha virt. eigenvalues --    0.75786   0.76540   0.76747   0.77526   0.77796
 Alpha virt. eigenvalues --    0.78626   0.79322   0.79421   0.80845   0.81046
 Alpha virt. eigenvalues --    0.81356   0.82600   0.83518   0.84342   0.85222
 Alpha virt. eigenvalues --    0.86316   0.86455   0.86944   0.87573   0.88055
 Alpha virt. eigenvalues --    0.88619   0.89077   0.89523   0.90112   0.90742
 Alpha virt. eigenvalues --    0.91213   0.91571   0.92715   0.92857   0.93950
 Alpha virt. eigenvalues --    0.94277   0.94764   0.95173   0.95996   0.97087
 Alpha virt. eigenvalues --    0.97756   0.98436   0.98512   0.99181   0.99666
 Alpha virt. eigenvalues --    1.00979   1.01448   1.01870   1.03254   1.03454
 Alpha virt. eigenvalues --    1.03577   1.04434   1.04827   1.05087   1.05691
 Alpha virt. eigenvalues --    1.06867   1.07445   1.07806   1.08413   1.09285
 Alpha virt. eigenvalues --    1.10246   1.11042   1.11383   1.12012   1.13221
 Alpha virt. eigenvalues --    1.13911   1.14639   1.16103   1.17102   1.17413
 Alpha virt. eigenvalues --    1.18696   1.19450   1.20992   1.22180   1.23649
 Alpha virt. eigenvalues --    1.23779   1.25115   1.27956   1.29685   1.30449
 Alpha virt. eigenvalues --    1.31287   1.33851   1.36043   1.36453   1.36731
 Alpha virt. eigenvalues --    1.37302   1.38910   1.40146   1.40919   1.43024
 Alpha virt. eigenvalues --    1.44591   1.46217   1.46973   1.48804   1.49223
 Alpha virt. eigenvalues --    1.49972   1.50783   1.51746   1.52461   1.52737
 Alpha virt. eigenvalues --    1.54594   1.55060   1.56080   1.56725   1.58094
 Alpha virt. eigenvalues --    1.58527   1.59798   1.60144   1.60678   1.61086
 Alpha virt. eigenvalues --    1.62421   1.62946   1.64181   1.64468   1.64669
 Alpha virt. eigenvalues --    1.66649   1.67056   1.67957   1.68483   1.69500
 Alpha virt. eigenvalues --    1.70064   1.71010   1.71438   1.71999   1.73327
 Alpha virt. eigenvalues --    1.74427   1.74502   1.74842   1.75301   1.76449
 Alpha virt. eigenvalues --    1.77215   1.77433   1.79017   1.79225   1.80063
 Alpha virt. eigenvalues --    1.81806   1.83566   1.84316   1.85175   1.85897
 Alpha virt. eigenvalues --    1.87634   1.89084   1.89111   1.89486   1.91270
 Alpha virt. eigenvalues --    1.91504   1.92638   1.93246   1.93618   1.95145
 Alpha virt. eigenvalues --    1.95683   1.97311   1.98614   1.99471   2.00065
 Alpha virt. eigenvalues --    2.00725   2.02055   2.02977   2.06602   2.06752
 Alpha virt. eigenvalues --    2.07287   2.08319   2.09706   2.10961   2.11851
 Alpha virt. eigenvalues --    2.13357   2.13955   2.14102   2.14647   2.15932
 Alpha virt. eigenvalues --    2.18020   2.19412   2.20809   2.22405   2.23457
 Alpha virt. eigenvalues --    2.23767   2.24684   2.25925   2.26843   2.31230
 Alpha virt. eigenvalues --    2.32621   2.34486   2.36549   2.36983   2.39740
 Alpha virt. eigenvalues --    2.40332   2.41514   2.41894   2.43222   2.44458
 Alpha virt. eigenvalues --    2.44784   2.46034   2.46806   2.47133   2.47472
 Alpha virt. eigenvalues --    2.48144   2.49160   2.50034   2.51959   2.55168
 Alpha virt. eigenvalues --    2.56810   2.58146   2.58786   2.60059   2.60128
 Alpha virt. eigenvalues --    2.61487   2.62543   2.64079   2.64400   2.65337
 Alpha virt. eigenvalues --    2.66204   2.66724   2.67882   2.68896   2.70710
 Alpha virt. eigenvalues --    2.70772   2.71477   2.72068   2.72990   2.73112
 Alpha virt. eigenvalues --    2.73792   2.74351   2.74931   2.76204   2.76528
 Alpha virt. eigenvalues --    2.78667   2.79039   2.80387   2.81046   2.81981
 Alpha virt. eigenvalues --    2.82756   2.83550   2.84264   2.85812   2.86864
 Alpha virt. eigenvalues --    2.88436   2.89720   2.89937   2.90436   2.91409
 Alpha virt. eigenvalues --    2.91735   2.92534   2.94578   2.94807   2.96794
 Alpha virt. eigenvalues --    2.97776   2.99333   2.99985   3.01782   3.02969
 Alpha virt. eigenvalues --    3.05069   3.07687   3.08314   3.10132   3.11636
 Alpha virt. eigenvalues --    3.13235   3.16611   3.20986   3.23161   3.26783
 Alpha virt. eigenvalues --    3.32336   3.32921   3.34422   3.34768   3.43603
 Alpha virt. eigenvalues --    3.45369   3.48371   3.50374   3.53122   3.53850
 Alpha virt. eigenvalues --    3.61090   3.62203   3.63214   3.64119   3.67104
 Alpha virt. eigenvalues --    3.68320   3.69759   3.72813   3.74178   3.75010
 Alpha virt. eigenvalues --    3.77865   3.80421   3.80768   3.84181   3.84498
 Alpha virt. eigenvalues --    3.88275   3.90608   3.91850   3.92615   3.93225
 Alpha virt. eigenvalues --    3.95567   3.96517   3.97801   4.00944   4.06520
 Alpha virt. eigenvalues --    4.07186   4.08274   4.24950   4.29510   4.45272
 Alpha virt. eigenvalues --    4.54606   4.56051   4.59194   4.67993   4.72389
 Alpha virt. eigenvalues --    4.78179   4.83136   4.88112   4.90549   5.16437
 Alpha virt. eigenvalues --    5.19168   5.26289  22.53638  22.63527  22.72634
 Alpha virt. eigenvalues --   22.74700  22.78497  22.81655  22.85618  22.86263
 Alpha virt. eigenvalues --   22.86727  22.87943  22.96526  22.97091  22.99304
 Alpha virt. eigenvalues --   23.06218  23.35484  33.81564  33.85682  33.90934
 Alpha virt. eigenvalues --   33.95888  34.00465  34.01810  34.14668
          Condensed to atoms (all electrons):
               1          2          3          4          5          6
     1  N    8.158723  -0.068483  -0.629761   0.029491  -0.069293   0.002226
     2  N   -0.068483   6.740835   0.007086   0.007419  -0.034752   0.052677
     3  N   -0.629761   0.007086   7.865895  -0.705087   0.316339  -0.037064
     4  N    0.029491   0.007419  -0.705087   7.794372  -0.631756   0.025954
     5  N   -0.069293  -0.034752   0.316339  -0.631756   7.175569  -0.230911
     6  N    0.002226   0.052677  -0.037064   0.025954  -0.230911   6.655772
     7  N   -0.071647  -0.027726  -0.002037  -0.000135   0.000463  -0.000082
     8  C   -1.189638   0.049204   0.333226  -0.034402   0.040765  -0.013711
     9  C   -0.702121   0.552491   0.677677  -0.305887   0.150081  -0.028006
    10  C   -0.131713   0.088995   0.319964  -0.246162   0.265043  -0.094657
    11  C   -0.461831   0.087569  -0.423625  -0.029511   0.056946  -0.032826
    12  C    1.066407  -0.102534  -0.490167  -0.009251  -0.017410   0.005004
    13  C    0.484345  -0.392829  -0.468954   0.208793   0.294957   0.265672
    14  C   -0.451269   0.177116   0.222931   0.446496   0.073617   0.131132
    15  C    0.012487  -0.025905  -0.030453  -0.005353   0.006502  -0.001467
    16  C    0.188638   0.053872   0.306717   0.015775  -0.001529   0.001941
    17  C    0.069404  -0.001421   0.007604  -0.001802   0.001268  -0.000071
    18  C   -0.073472   0.006624   0.033280   0.005440   0.001821  -0.000006
    19  C   -0.014122   0.005046  -0.089527   0.416192  -0.095896   0.011772
    20  C    0.034291  -0.001145  -0.098890   0.378908  -0.075926   0.000791
    21  C   -0.046437  -0.000899   0.006276   0.000623  -0.000534   0.000049
    22  C    0.657085  -0.134599   0.011387   0.018904  -0.028507   0.006766
    23  H   -0.086567   0.001979   0.052120  -0.002202   0.003184  -0.000373
    24  H   -0.038341   0.003103  -0.012421   0.003396  -0.004499   0.000591
    25  H   -0.003059  -0.001048  -0.003948   0.000137  -0.000062  -0.000003
    26  H    0.052260   0.008806   0.039941   0.001409   0.001704   0.002571
    27  H    0.001998   0.000026   0.000169  -0.000018   0.000005   0.000000
    28  H    0.000800  -0.000192  -0.001454  -0.000051   0.000083  -0.000072
    29  H    0.000757  -0.000023  -0.006976  -0.028733  -0.026960   0.000025
    30  H    0.000755  -0.000093  -0.005678  -0.031026  -0.028620   0.000922
    31  H   -0.000918   0.000069   0.004934  -0.100061   0.031257  -0.000201
    32  H   -0.001331  -0.000099  -0.044624  -0.036981  -0.004831   0.000453
    33  H   -0.005427   0.000233  -0.008880  -0.036387  -0.001542   0.000169
    34  H    0.001232  -0.000241   0.035903  -0.101869   0.005178  -0.000282
    35  H    0.000250   0.017882  -0.000773  -0.000595   0.008290   0.350880
    36  H    0.001105   0.000395  -0.002501   0.002514   0.003197   0.341966
    37  H   -0.000617  -0.000031   0.000098   0.000032  -0.000016   0.000002
               7          8          9         10         11         12
     1  N   -0.071647  -1.189638  -0.702121  -0.131713  -0.461831   1.066407
     2  N   -0.027726   0.049204   0.552491   0.088995   0.087569  -0.102534
     3  N   -0.002037   0.333226   0.677677   0.319964  -0.423625  -0.490167
     4  N   -0.000135  -0.034402  -0.305887  -0.246162  -0.029511  -0.009251
     5  N    0.000463   0.040765   0.150081   0.265043   0.056946  -0.017410
     6  N   -0.000082  -0.013711  -0.028006  -0.094657  -0.032826   0.005004
     7  N    6.879793   0.183759   0.056508  -0.068725   0.631210  -0.025640
     8  C    0.183759  17.239796   1.465005  -0.321162   1.237039  -9.062155
     9  C    0.056508   1.465005  13.449335  -0.950832  -0.535909  -1.222469
    10  C   -0.068725  -0.321162  -0.950832   7.948033  -0.364704   0.081081
    11  C    0.631210   1.237039  -0.535909  -0.364704  14.111249   0.062751
    12  C   -0.025640  -9.062155  -1.222469   0.081081   0.062751  18.609007
    13  C   -0.028142  -0.522273  -2.205090  -0.764351  -0.412712   0.508465
    14  C   -0.009827   0.344335  -1.272136  -1.026696  -1.395670  -0.839221
    15  C   -0.099028  -2.208622  -0.181408   0.092370   0.088925   1.567958
    16  C    0.024418   0.334359  -0.593858   0.168570  -0.894666  -3.093052
    17  C   -0.027903  -1.088348  -0.092333   0.034327   0.027434  -0.387568
    18  C   -0.000084   0.467044  -0.034259   0.006843  -0.169874  -2.473689
    19  C   -0.000062  -0.000858  -0.257393  -0.052294  -0.024103  -0.010944
    20  C   -0.000014  -0.062686   0.076977  -0.037574   0.011187   0.060611
    21  C   -0.000518   0.444357  -0.024825   0.000383   0.004250  -0.572208
    22  C   -0.194916  -1.891134  -2.100366   0.923354  -6.288954   1.127384
    23  H    0.012438   0.669514   0.064952  -0.016008  -0.004444  -0.387601
    24  H    0.002954   0.051540  -0.025330   0.002450  -0.068808   0.277958
    25  H   -0.003955  -0.065017  -0.038385   0.011464   0.007140   0.052072
    26  H   -0.000431  -0.103956   0.019838   0.006326  -0.031887   0.049444
    27  H   -0.000019  -0.029749   0.000248  -0.000364  -0.002691   0.007290
    28  H   -0.000056  -0.003016   0.002024  -0.000233  -0.002710  -0.010226
    29  H    0.000001  -0.000411  -0.002004  -0.008671   0.000157  -0.000929
    30  H   -0.000002  -0.000872  -0.014664  -0.007643  -0.000885   0.000437
    31  H   -0.000001   0.001076   0.002594   0.005965  -0.000310  -0.000001
    32  H   -0.000013   0.004682  -0.007411  -0.007557   0.004647   0.014346
    33  H   -0.000002   0.023643  -0.049829  -0.002884  -0.001240  -0.034667
[...]
 0.00007923,0.00003038,0.00005612,-0.00003360,-0.00001865,-0.00007972,0
 .00006075,-0.00006686,-0.00004789,0.00081010,0.00005753,-0.00013849,-0
 .00012764,0.00016416,0.00004564,-0.00008152,0.00003062,0.00002071,-0.0
 0003006,-0.00001126,0.00018802,0.00004328,-0.00016357,-0.00044339,0.00
 106981,0.00004233,0.00000095,0.00002075,0.00000731,-0.00013204,0.00003
 510,0.00005553,0.00000543,0.00000395,0.00000400,0.00004366,-0.00006286
 ,-0.00002550,-0.00021098,-0.00190539,0.00138779,-0.10648988,0.02821377
 ,0.11117736,0.00001736,0.00002281,0.00001158,-0.00007446,0.00003475,0.
 00003600,0.00002789,-0.00002474,0.00002221,-0.00001101,0.00001457,0.00
 008223,-0.00000188,-0.00000489,0.00000027,0.00006132,-0.00003936,-0.00
 009534,0.00000639,-0.00000097,0.00000521,0.00000719,0.00001361,0.00001
 165,-0.00040091,-0.00008272,0.00045417,-0.00032026,-0.00007780,0.00049
 624,0.00021528,-0.00036057,0.00016281,0.00991199,-0.00466568,-0.018905
 97,0.11855193,-0.00022323,0.00004891,0.00017065,-0.00011991,0.00017823
 ,0.00013118,0.00166425,-0.00141004,0.00048047,-0.01802536,0.00197789,0
 .02797664,-0.00007388,-0.00130030,-0.00007758,0.00013338,0.00001617,-0
 .00003440,0.00000076,0.00000146,0.00000406,0.00004821,0.00001311,-0.00
 001338,0.00025993,-0.00146418,-0.00039982,0.00068765,0.00014272,-0.000
 29729,0.00014144,-0.00001868,-0.00004126,-0.00000248,0.00002135,0.0000
 3126,-0.00099218,0.00050751,-0.00007496,-0.00225798,0.00303191,0.00078
 176,-0.00000494,-0.00001040,-0.00001744,-0.00001386,-0.00002180,0.0000
 1270,-0.00000080,-0.00000216,0.00000070,-0.00000585,-0.00001032,-0.000
 00534,0.00084301,-0.00336935,0.00182016,0.03227215,-0.06195095,-0.0597
 4088,-0.00000787,-0.00000782,0.00000131,-0.00002469,0.00001161,-0.0000
 3147,-0.00001386,0.00001228,-0.00000820,0.00006679,0.00003221,-0.00002
 714,0.00000404,0.00000183,0.00000064,0.00002110,0.00003252,-0.00003093
 ,-0.00000340,0.00000018,-0.00000260,0.00000562,0.00000175,-0.00000654,
 -0.00049762,0.00004282,0.00037058,-0.00059555,0.00014471,0.00040229,-0
 .00014869,0.00033848,-0.00045085,0.00597954,-0.00215427,-0.00867838,-0
 .02647832,0.06884265,0.00025367,-0.00018612,0.00004185,-0.00005291,-0.
 00023013,0.00010660,-0.00054537,-0.00103419,0.00065866,0.00804412,0.00
 550938,-0.00745432,-0.00033400,0.00056327,-0.00024305,-0.00013434,-0.0
 0011021,0.00011362,-0.00007498,0.00002224,0.00002008,0.00000838,0.0000
 6301,-0.00008863,-0.00078513,-0.00022283,0.00036533,-0.00012543,-0.000
 02997,0.00003280,-0.00018862,0.00040326,-0.00009908,-0.00000974,-0.000
 00133,0.00002879,0.00042599,-0.00012631,-0.00005408,0.00367836,-0.0022
 8618,-0.00007314,-0.00000753,0.00000359,0.00000037,-0.00010985,0.00001
 178,0.00003878,0.00001140,0.00000540,0.00000273,0.00003344,-0.00005684
 ,-0.00001937,-0.00193632,0.00101156,-0.00066745,0.11122258,-0.05325761
 ,-0.24802660,0.00001042,0.00000599,0.00001358,0.00013566,-0.00006510,-
 0.00002680,0.00001862,-0.00002361,0.00001626,-0.00007019,0.00006291,0.
 00005847,0.00000738,0.00000118,-0.00000513,-0.00005877,0.00001320,-0.0
 0015669,0.00000436,0.00000007,0.00000175,0.00000824,0.00001438,0.00000
 006,0.00015387,-0.00013920,-0.00025427,0.00008496,-0.00011238,-0.00010
 651,-0.00005493,-0.00017329,0.00010302,0.00959437,-0.00628870,-0.01817
 447,-0.12505797,0.05578163,0.26577912,-0.00017665,0.00003374,0.0000855
 5,0.00000658,0.00017681,-0.00005228,-0.00043454,0.00195303,-0.00013067
 ,0.00999077,-0.01407665,0.00428327,0.00047873,-0.00107705,0.00005879,0
 .00017208,0.00015506,-0.00012043,-0.00004176,0.00002689,0.00001347,0.0
 0005375,0.00001552,-0.00000206,0.00086734,-0.00047273,-0.00018565,0.00
 006827,0.00016017,-0.00011794,0.00000014,-0.00006660,0.00001785,-0.000
 03852,-0.00000547,-0.00000657,-0.00028472,-0.00029583,0.00017622,-0.00
 294444,-0.00176268,0.00150564,-0.00000738,0.00000103,-0.00000194,0.000
 12770,-0.00003587,0.00002577,-0.00001445,0.00000187,0.00000292,-0.0000
 5001,0.00003393,0.00001784,0.00085784,-0.00237469,0.00114656,-0.191531
 06,0.13820984,-0.03693021,-0.00000418,-0.00000910,-0.00000776,0.000045
 67,-0.00001192,-0.00002317,-0.00002225,0.00001344,-0.00000364,0.000035
 35,-0.00001228,-0.00004779,-0.00000346,0.00000760,-0.00000061,0.000097
 66,-0.00002098,0.00001982,-0.00000822,0.00000377,-0.00000363,0.0000155
 9,0.00000393,-0.00000025,-0.00024912,0.00031590,-0.00011735,0.00036792
 ,-0.00031789,0.00018813,-0.00013985,-0.00047026,0.00015804,-0.01351375
 ,0.01358431,-0.00163799,-0.00878876,0.00736530,-0.00417339,0.20510959,
 0.00012248,0.00004933,-0.00006077,-0.00000117,0.00000052,-0.00001036,0
 .00042904,-0.00010497,0.00016270,0.01948326,-0.02734428,0.00548373,0.0
 0046793,-0.00208067,0.00053800,0.00000029,-0.00030623,0.00010946,0.000
 10402,-0.00004430,-0.00002493,-0.00009268,-0.00009375,0.00004852,-0.00
 025815,0.00036334,0.00006420,0.00003973,-0.00014192,-0.00000016,0.0001
 7865,-0.00015176,-0.00000820,-0.00002305,-0.00001070,-0.00004167,-0.00
 028378,0.00019896,-0.00005830,-0.00379838,0.00007516,0.00253813,-0.000
 00047,0.00002029,0.00001049,0.00004145,0.00002287,0.00002045,-0.000004
 71,0.00000976,-0.00000097,-0.00000033,-0.00000189,-0.00000964,0.003161
 64,0.00025414,-0.00093250,0.12752741,-0.16988346,0.03272339,0.00000706
 ,0.00000097,0.00001066,-0.00014568,0.00006462,0.00003347,0.00001943,0.
 00000307,0.00000149,-0.00001322,0.00000668,0.00000696,-0.00001096,-0.0
 0000293,0.00000327,0.00004695,-0.00006498,-0.00000781,0.00000199,-0.00
 000061,0.00000372,0.00000641,0.00000701,0.00001026,-0.00032239,0.00013
 580,0.00010831,-0.00005205,0.00031050,-0.00032920,-0.00124274,0.000587
 29,0.00011430,-0.00805241,0.00926395,-0.00149699,0.00368821,-0.0036907
 3,0.00088906,-0.14103273,0.19252718,0.00007846,0.00000806,-0.00001004,
 0.00001666,-0.00010456,-0.00001277,0.00060402,-0.00136215,0.00063926,-
 0.00766540,0.01187258,-0.00449400,-0.00013762,0.00115814,-0.00000188,-
 0.00004959,0.00008907,-0.00004831,-0.00001126,0.00000723,0.00000173,-0
 .00001689,0.00000483,-0.00001766,-0.00037579,0.00010940,0.00032738,-0.
 00006102,-0.00010384,-0.00000482,-0.00006249,0.00003831,0.00001726,-0.
 00002689,-0.00001906,-0.00002296,0.00032559,-0.00009066,0.00003650,0.0
 0250728,-0.00016639,-0.00121931,-0.00000671,0.00001344,0.00001002,0.00
 004085,0.00000189,0.00003758,-0.00000083,0.00001001,-0.00000087,-0.000
 01099,0.00000775,-0.00000371,-0.00136152,0.00099419,0.00047526,-0.0334
 6673,0.03088400,-0.05579615,0.00000651,-0.00000349,0.00000573,0.000023
 36,-0.00001579,-0.00000193,0.00000809,-0.00000225,0.00000613,-0.000027
 62,0.00000698,0.00001673,-0.00000416,0.00000171,-0.00000042,0.00004818
 ,-0.00004077,-0.00004842,-0.00000112,0.00000063,0.00000213,0.00000906,
 0.00000462,0.00000727,0.00001516,0.00002839,-0.00017305,0.00007284,-0.
 00019537,-0.00003601,0.00074470,0.00015210,0.00026900,-0.01520324,0.01
 465184,-0.00336884,0.01813518,-0.01804389,0.00807120,0.03585732,-0.039
 90214,0.05534365,0.00018885,0.00125232,-0.00051629,0.00223166,-0.00017
 283,-0.00116068,-0.00077033,-0.00022550,0.00015815,-0.00036879,-0.0001
 4690,0.00009813,-0.00110550,-0.00396362,0.00294425,-0.16751427,0.18321
 491,-0.00219187,-0.00008735,0.00007367,-0.00001189,-0.00014361,0.00000
 352,0.00011831,0.00080030,0.00010040,-0.00057968,-0.00171172,-0.001670
 82,0.00077540,-0.00192805,-0.00010075,0.00077480,0.00002545,0.00001659
 ,-0.00005672,0.01530506,-0.01219624,-0.00329265,0.00191001,0.00035656,
 0.00046087,0.00000048,0.00002545,0.00000026,0.00005000,-0.00002348,0.0
 0001102,-0.00001072,0.00000827,0.00000134,-0.00001314,0.00000719,-0.00
 000573,-0.00003641,0.00002916,0.00006379,0.00002949,-0.00005097,-0.000
 05613,0.00000585,0.00000069,-0.00000414,0.00028591,-0.00015441,-0.0000
 4509,0.00000658,-0.00000053,-0.00000400,0.00005592,0.00004269,-0.00003
 473,-0.00001169,-0.00000484,0.00000684,0.00000696,0.00001383,-0.000000
 21,-0.00000122,-0.00000377,0.00000588,0.00000127,0.00000265,0.00000829
 ,-0.00001151,0.00000123,-0.00000886,-0.00001575,-0.00000163,0.00001400
 ,0.00000677,-0.00001036,0.00000056,0.00000729,-0.00003780,0.00000649,0
 .00000621,0.00000779,-0.00000570,-0.00000415,-0.00002381,0.00000748,0.
 15763093,0.00028140,0.00014296,-0.00008472,-0.00106518,0.00014524,0.00
 013662,-0.00046210,0.00061551,-0.00029103,-0.00036067,0.00012790,-0.00
 005304,-0.00190230,-0.00095933,0.00214297,0.18205213,-0.35518300,0.064
 59314,0.00025113,-0.00018142,-0.00005502,-0.00007910,-0.00012677,0.000
 10064,0.00014043,-0.00123193,0.00021576,0.00106709,0.00013911,-0.00110
 308,0.00070730,0.00011532,-0.00040982,0.00000527,0.00001567,-0.0000437
 5,0.01198008,-0.01792821,0.00054442,0.00086527,-0.00062217,0.00114780,
 0.00000232,0.00002188,0.00001226,0.00000523,0.00001299,-0.00000078,-0.
 00000549,0.00000088,0.00000059,0.00001441,-0.00000701,-0.00001175,0.00
 010452,0.00001279,0.00000682,0.00001831,-0.00007783,0.00000029,0.00000
 338,0.00000395,0.00000400,-0.00038393,0.00024760,0.00007473,0.00003427
 ,0.00000710,-0.00000712,-0.00001434,0.00001343,0.00001234,-0.00000865,
 -0.00000661,0.00000024,-0.00001311,-0.00002883,0.00000376,0.00000999,-
 0.00000179,0.00000429,-0.00000499,-0.00000042,0.00000538,-0.00001111,-
 0.00001139,0.00001504,0.00002290,-0.00004503,0.00001274,-0.00001291,0.
 00002630,-0.00001406,0.00000980,0.00000381,0.00000292,0.00001153,-0.00
 000143,0.00000659,-0.00002773,0.00000617,-0.00000123,-0.18814935,0.370
 34253,-0.00013043,-0.00052368,0.00045231,-0.00080004,-0.00023187,-0.00
 018809,0.00028089,-0.00037736,-0.00061883,0.00022347,-0.00006768,-0.00
 017202,0.00216180,0.00294973,0.00024270,-0.00216835,0.06526318,-0.0254
 0460,-0.00007784,0.00001093,-0.00002641,0.00014549,0.00009477,0.000043
 24,-0.00061637,0.00026506,-0.00034052,-0.00025063,0.00008253,-0.001386
 61,0.00047494,-0.00009308,-0.00037571,0.00002017,0.00003236,0.00002436
 ,-0.01292490,0.01010740,-0.00276711,0.00015742,0.00129308,0.00267007,-
 0.00000827,-0.00000932,-0.00000867,-0.00001092,-0.00000828,-0.00000741
 ,0.00000070,-0.00000154,-0.00000548,0.00000290,0.00000696,-0.00001131,
 0.00003197,0.00003440,0.00005434,-0.00006745,0.00002670,-0.00011498,-0
 .00000996,-0.00000348,-0.00001713,0.00003948,-0.00000349,0.00004105,-0
 .00000903,-0.00001796,0.00000904,-0.00003624,-0.00002592,0.00002114,0.
 00001246,0.00000135,0.,0.00000105,0.00000652,0.00000959,-0.00000748,-0
 .00000233,0.00000103,-0.00000210,-0.00001414,-0.00000014,-0.00000387,-
 0.00001619,-0.00001833,0.00001842,-0.00000822,-0.00000711,-0.00000178,
 0.00000839,-0.00000132,-0.00002102,-0.00003270,0.00001103,-0.00000032,
 0.00002238,-0.00000574,0.00001242,0.00001509,-0.00002238,0.01127598,-0
 .06564947,0.02807119,-0.00027443,-0.00020569,-0.00000830,-0.00015996,0
 .00023766,-0.00025004,0.00003346,0.00060085,-0.00023344,-0.00032386,0.
 00035535,-0.00014303,-0.00005382,0.00255942,-0.00247162,-0.40588163,0.
 05135432,0.15573532,0.00017005,-0.00007659,-0.00003965,-0.00009550,-0.
 00002636,0.00001799,-0.00012519,0.00008724,0.00076331,0.00282237,-0.00
 099576,0.00101570,0.00049872,-0.00013580,-0.00010826,-0.00000343,-0.00
 000584,-0.00001404,-0.01261660,-0.00209121,0.00598087,-0.00037374,-0.0
 0104179,0.00009130,0.00000333,0.00001108,0.00000272,-0.00000095,0.0000
 2335,-0.00000330,-0.00000379,0.00000749,-0.00000439,0.00001220,-0.0000
 0764,-0.00001190,0.00029412,0.00012043,-0.00007214,0.00001623,-0.00000
 098,0.00008243,0.00000121,0.00000153,0.00000113,-0.00028169,0.00011480
 ,0.00003587,0.00001260,-0.00000669,0.00000854,-0.00000474,0.00001147,0
 .00001067,-0.00001056,-0.00000938,0.00000681,-0.00001051,-0.00002726,0
 .00000438,0.00000478,-0.00000371,0.00000356,-0.00000448,-0.00000009,0.
 00000531,-0.00002084,-0.00001785,0.00004233,-0.00000458,0.00001605,-0.
 00005432,-0.00003115,0.00001785,-0.00000217,-0.00000004,0.00002244,-0.
 00001579,0.00000116,-0.00001078,0.00001838,-0.00002367,0.00003201,-0.0
 0000694,-0.00481897,-0.00509099,0.00229436,0.42124952,0.00002471,-0.00
 034790,-0.00007731,0.00050392,0.00012175,-0.00046416,0.00122476,-0.000
 26950,-0.00038340,0.00020646,0.00013149,-0.00012826,0.00159297,0.00207
 695,-0.00290830,0.05172795,-0.06839464,0.00394979,-0.00004057,0.000020
 18,0.00000814,-0.00007286,0.00010373,0.00000556,-0.00118321,0.00160468
 ,0.00055706,-0.00011900,-0.00453197,0.00342510,-0.00036032,0.00011575,
 0.00014287,0.00000234,0.00000698,0.00000465,-0.02921151,0.01063644,0.0
 0830677,-0.00023561,-0.00111144,0.00006612,-0.00000323,-0.00000367,0.0
 0000285,-0.00001307,0.00000615,-0.00000213,0.00000265,-0.00000035,-0.0
 0000333,0.00000517,0.00000295,-0.00000206,-0.00018632,-0.00008594,0.00
 009502,-0.00007839,-0.00009148,0.00005965,-0.00000429,-0.00000296,-0.0
 0000553,0.00005900,-0.00006328,-0.00002674,-0.00001495,-0.00001935,0.0
 0000779,0.00000119,0.00000545,-0.00000180,0.00000329,-0.00000165,-0.00
 000162,0.00000133,0.00000215,0.00000196,0.00000164,-0.00000126,0.00000
 057,-0.00000434,-0.00000649,-0.00000096,0.00000204,-0.00006684,-0.0000
 5852,0.00012253,-0.00007696,0.00015245,0.00002716,0.00007320,-0.000056
 16,0.00002572,0.00002916,0.00001216,0.00002352,0.00001090,-0.00002554,
 0.00000831,0.00001412,0.00000591,0.02178124,0.00440895,-0.01312645,-0.
 04582015,0.05570521,-0.00009335,0.00002373,-0.00038992,-0.00039921,-0.
 00035174,-0.00022259,-0.00049373,-0.00009751,0.00026311,0.00003696,-0.
 00022317,0.00005581,-0.00214673,-0.00317701,-0.00144579,0.15675792,0.0
 0428877,-0.07123967,-0.00004679,0.00001226,0.00001181,0.00007706,-0.00
 003079,-0.00005545,0.00123670,-0.00006787,0.00125922,0.00071632,0.0038
 0348,0.00237696,0.00000270,0.00005811,0.00005232,0.00000076,0.00000918
 ,0.00001027,0.01597574,-0.00391909,-0.00629162,-0.00017272,0.00041104,
 -0.00112230,-0.00000947,-0.00001281,0.00000974,0.00000604,-0.00001110,
 -0.00000572,0.00000200,0.00000473,-0.00000811,-0.00000495,0.00001214,-
 0.00000318,-0.00004198,0.00013055,0.00015002,0.00007306,0.00006115,0.0
 0001181,-0.00000670,-0.00000343,-0.00000850,0.00005746,-0.00003890,-0.
 00006588,0.00001243,0.00002989,-0.00001496,-0.00000107,0.00000386,-0.0
 0000310,0.00000633,0.00000124,-0.00000056,0.00000901,0.00001123,0.0000
 0948,-0.00000416,-0.00000096,0.00000098,-0.00000014,-0.00000998,0.0000
 0132,-0.00001846,-0.00007656,-0.00008121,-0.00004597,0.00008955,0.0000
 5024,-0.00000220,-0.00002961,-0.00001724,-0.00002527,-0.00002127,-0.00
 001289,-0.00000509,-0.00000097,0.00000058,0.00000352,-0.00001465,0.000
 01846,-0.00876151,-0.00132599,-0.00015019,-0.16268877,0.00046645,0.076
 85812,-0.00006917,-0.00006806,0.00000065,-0.00003357,-0.00004672,0.000
 04193,-0.00017100,-0.00008336,-0.00000578,-0.00006681,0.00003432,-0.00
 000040,-0.00003218,-0.00004388,0.00004855,-0.00003450,-0.00005519,0.00
 004390,0.00002131,-0.00000210,0.00000012,-0.00001086,-0.00024593,0.000
 14645,0.00004462,0.00009022,-0.00002870,-0.00002891,-0.00002489,0.0000
 3125,-0.00001551,0.00008988,-0.00003624,-0.00066781,0.00076868,0.00075
 938,0.00005134,0.00006520,-0.00005396,0.00015269,-0.00004130,-0.000058
 97,0.00088767,0.00343910,0.00019259,-0.00394903,0.00372413,-0.00164838
 ,0.01006392,0.00656730,0.00866691,-0.01093990,-0.01496137,-0.02021307,
 0.00003081,-0.00000546,-0.00002110,0.00001489,0.00001081,0.00001046,-0
 .15047323,-0.07185822,-0.11599744,-0.00001949,0.00001357,0.00000149,-0
 .00002309,-0.00004453,-0.00004232,0.00006565,0.00000841,0.00005833,0.0
 0032740,0.00032393,0.00041991,-0.00054264,-0.00066615,-0.00092972,0.00
 015601,-0.00144707,0.00070288,0.00051212,-0.00073412,0.00142792,-0.000
 00434,0.00000257,0.00001143,-0.00000213,-0.00000291,0.00000313,-0.0000
 0288,0.00000416,-0.00000033,0.00001053,-0.00001460,-0.00001516,0.00001
 127,0.00000028,0.00001096,-0.00001404,0.00000075,-0.00000392,-0.000001
 82,0.00000518,-0.00000692,0.00000442,-0.00000009,-0.00000576,0.1547482
 5,-0.00020434,-0.00006382,0.00003423,-0.00002384,-0.00003453,0.0000318
 3,-0.00002141,0.00003124,0.00002803,-0.00002247,0.00001161,-0.00000025
 ,-0.00001236,-0.00000563,0.00000922,-0.00002065,-0.00002581,0.00002913
 ,-0.00004166,-0.00003059,0.00002119,-0.00020336,-0.00036866,0.00035183
 ,0.00006620,-0.00008649,-0.00002705,-0.00003892,0.00000531,0.00002454,
 0.00000211,0.00008749,-0.00004658,0.00076801,-0.00074634,0.00040751,0.
 00004838,0.00002371,-0.00003727,0.00003465,0.00000738,-0.00001344,0.00
 367400,-0.00019232,-0.00508759,0.00345147,0.00286927,-0.00211678,-0.01
 519272,-0.00577176,-0.01571614,0.00673937,0.00801069,0.00679940,0.0000
 0978,-0.00000173,-0.00000659,0.00000237,0.00000045,-0.00000051,-0.0717
 6001,-0.11078584,-0.09835335,0.00004626,-0.00000770,-0.00001075,0.0000
 2642,0.00005610,0.00006330,0.00004188,-0.00001806,-0.00001543,-0.00068
 459,-0.00036455,-0.00074713,0.00033317,0.00023824,0.00032960,-0.000784
 24,-0.00107798,0.00248306,-0.00142836,-0.00123385,0.00190421,-0.000001
 31,0.00000160,0.00000376,-0.00000061,-0.00000116,0.00000012,-0.0000001
 6,0.00000129,0.00000037,-0.00000083,0.00000200,-0.00000225,-0.00000038
 ,0.00000124,0.00000103,0.,0.00000144,0.00000049,-0.00000053,0.00000310
 ,-0.00000766,0.00000119,-0.00000052,-0.00000395,0.07519747,0.10946518,
 0.00011327,0.00001463,0.00004444,0.00000149,-0.00003418,0.00000200,-0.
 00011449,0.00000628,-0.00000588,-0.00005965,0.00005867,-0.00001837,-0.
 00003421,0.00001818,0.00000441,-0.00003719,-0.00004103,0.00002498,-0.0
 0005270,-0.00003644,0.00000520,0.00024594,0.00054160,-0.00046680,0.000
 05063,0.00001501,0.00000270,-0.00005551,0.00001105,0.00001446,0.000003
 26,0.00007035,-0.00000403,0.00065202,0.00032377,-0.00016502,0.00008896
 ,0.00002655,-0.00004069,0.00010444,-0.00008061,-0.00000136,0.00047864,
 -0.00513888,0.00287943,-0.00189572,-0.00203701,0.00428556,-0.01085624,
 -0.00596607,-0.00633733,-0.00067353,-0.00299190,0.00083327,0.00002688,
 -0.00000065,-0.00000793,0.00000098,-0.00000879,0.00001636,-0.11603103,
 -0.09837754,-0.17944058,0.00005516,-0.00002587,-0.00001069,0.00002090,
 -0.00003961,0.00001334,-0.00011771,0.00002396,-0.00000589,-0.00053300,
 -0.00024573,-0.00042531,-0.00000490,-0.00015890,-0.00009829,0.00132222
 ,0.00218639,-0.00165776,0.00080232,0.00221269,-0.00169712,-0.00000362,
 -0.00000010,0.00000688,0.00000049,-0.00000335,0.00000160,-0.00000343,0
 .00000530,-0.00000175,0.00000686,-0.00000412,-0.00000307,0.00000714,-0
 .00000510,0.00000170,-0.00000981,0.00000263,-0.00000175,0.00000403,0.0
 0000753,-0.00000100,0.00000712,0.00000141,-0.00000135,0.12648995,0.109
 66986,0.18225566\\-0.00001938,0.00000684,-0.00000889,0.00000146,-0.000
 01844,-0.00000583,-0.00000056,-0.00000212,-0.00000764,0.00000551,0.000
 01768,0.00001705,0.00000702,0.00000880,-0.00000841,-0.00001315,-0.0000
 1178,-0.00002191,0.00000315,0.00000187,-0.00000078,0.00001536,0.000001
 61,-0.00000218,0.00000312,-0.00001774,0.00000301,-0.00000301,0.0000372
 6,0.00000960,0.00000597,0.00000592,0.00000326,-0.00000253,-0.00000002,
 0.00000145,0.00000925,-0.00001055,0.00000496,-0.00000942,-0.00001487,0
 .00000896,-0.00000089,-0.00000112,-0.00000439,-0.00000058,0.00000744,0
 .00000790,0.00000058,0.00000868,0.00000817,-0.00000042,-0.00000228,-0.
 00000071,0.00001241,0.00000240,-0.00002354,-0.00002392,-0.00001960,-0.
 00000413,0.00000214,-0.00000233,-0.00000139,0.00000011,-0.00000005,0.0
 0000229,0.00000123,-0.00000110,0.00000440,0.00000104,-0.00000256,-0.00
 000341,0.00000100,0.00000200,0.00000042,-0.00000065,-0.00000114,-0.000
 00234,-0.00000041,0.00000052,-0.00000111,-0.00000213,0.00000179,-0.000
 00008,-0.00000596,-0.00000434,0.00000369,-0.00000322,-0.00000365,0.000
 00578,-0.00000334,-0.00000311,0.00000117,0.00000341,0.00000389,-0.0000
 0053,0.00000579,0.00000204,0.00000046,0.00000276,0.00000070,-0.0000004
 0,0.00000692,0.00000299,0.00000648,0.00000351,0.00000161,0.00000707,-0
 .00000217,0.00000276,0.00000154\\\@
 The archive entry for this job was punched.


 FROM THE ASHES OF OUR DESPAIR GROW THE FLOWERS OF TOMORROW.
 Job cpu time:       0 days 13 hours 59 minutes 12.3 seconds.
 Elapsed time:       0 days  0 hours 32 minutes 46.6 seconds.
 File lengths (MBytes):  RWF=   1161 Int=      0 D2E=      0 Chk=     29 Scr=      1
 Normal termination of Gaussian 16 at Tue Dec  5 06:19:01 2023.
