 Entering Gaussian System, Link 0=g16
 Input=/home/exlonk/in_progress/4010.inp
 Output=/home/exlonk/in_progress/4010.log
 Initial command:
 /opt/gaussian/g16-c01/g16/l1.exe "/lustre/tmp/slurm/2183857/Gau-3398044.inp" -scrdir="/lustre/tmp/slurm/2183857/"
 Default CPUs for threads: 2-3,7-9,11,13-15,19-20,23-27,31-33,37-39,42-45
 Default is to use a total of  26 processors:
                               26 via shared-memory
                                1 via Linda
 Entering Link 1 = /opt/gaussian/g16-c01/g16/l1.exe PID=   3398045.
  
 Copyright (c) 1988-2019, Gaussian, Inc.  All Rights Reserved.
  
 This is part of the Gaussian(R) 16 program.  It is based on
 the Gaussian(R) 09 system (copyright 2009, Gaussian, Inc.),
 the Gaussian(R) 03 system (copyright 2003, Gaussian, Inc.),
 the Gaussian(R) 98 system (copyright 1998, Gaussian, Inc.),
 the Gaussian(R) 94 system (copyright 1995, Gaussian, Inc.),
 the Gaussian 92(TM) system (copyright 1992, Gaussian, Inc.),
 the Gaussian 90(TM) system (copyright 1990, Gaussian, Inc.),
 the Gaussian 88(TM) system (copyright 1988, Gaussian, Inc.),
 the Gaussian 86(TM) system (copyright 1986, Carnegie Mellon
 University), and the Gaussian 82(TM) system (copyright 1983,
 Carnegie Mellon University). Gaussian is a federally registered
 trademark of Gaussian, Inc.
  
 This software contains proprietary and confidential information,
 including trade secrets, belonging to Gaussian, Inc.
  
 This software is provided under written license and may be
 used, copied, transmitted, or stored only in accord with that
 written license.
  
 The following legend is applicable only to US Government
 contracts under FAR:
  
                    RESTRICTED RIGHTS LEGEND
  
 Use, reproduction and disclosure by the US Government is
 subject to restrictions as set forth in subparagraphs (a)
 and (c) of the Commercial Computer Software - Restricted
 Rights clause in FAR 52.227-19.
  
 Gaussian, Inc.
 340 Quinnipiac St., Bldg. 40, Wallingford CT 06492
  
  
 ---------------------------------------------------------------
 Warning -- This program may not be used in any manner that
 competes with the business of Gaussian, Inc. or will provide
 assistance to any competitor of Gaussian, Inc.  The licensee
 of this program is prohibited from giving any competitor of
 Gaussian, Inc. access to this program.  By using this program,
 the user acknowledges that Gaussian, Inc. is engaged in the
 business of creating and licensing software in the field of
 computational chemistry and represents and warrants to the
 licensee that it is not a competitor of Gaussian, Inc. and that
 it will not use this program in any manner prohibited above.
 ---------------------------------------------------------------
  

 Cite this work as:
 Gaussian 16, Revision C.01,
 M. J. Frisch, G. W. Trucks, H. B. Schlegel, G. E. Scuseria, 
 M. A. Robb, J. R. Cheeseman, G. Scalmani, V. Barone, 
 G. A. Petersson, H. Nakatsuji, X. Li, M. Caricato, A. V. Marenich, 
 J. Bloino, B. G. Janesko, R. Gomperts, B. Mennucci, H. P. Hratchian, 
 J. V. Ortiz, A. F. Izmaylov, J. L. Sonnenberg, D. Williams-Young, 
 F. Ding, F. Lipparini, F. Egidi, J. Goings, B. Peng, A. Petrone, 
 T. Henderson, D. Ranasinghe, V. G. Zakrzewski, J. Gao, N. Rega, 
 G. Zheng, W. Liang, M. Hada, M. Ehara, K. Toyota, R. Fukuda, 
 J. Hasegawa, M. Ishida, T. Nakajima, Y. Honda, O. Kitao, H. Nakai, 
 T. Vreven, K. Throssell, J. A. Montgomery, Jr., J. E. Peralta, 
 F. Ogliaro, M. J. Bearpark, J. J. Heyd, E. N. Brothers, K. N. Kudin, 
 V. N. Staroverov, T. A. Keith, R. Kobayashi, J. Normand, 
 K. Raghavachari, A. P. Rendell, J. C. Burant, S. S. Iyengar, 
 J. Tomasi, M. Cossi, J. M. Millam, M. Klene, C. Adamo, R. Cammi, 
 J. W. Ochterski, R. L. Martin, K. Morokuma, O. Farkas, 
 J. B. Foresman, and D. J. Fox, Gaussian, Inc., Wallingford CT, 2019.
 
 ******************************************
 Gaussian 16:  EM64L-G16RevC.01  3-Jul-2019
                 6-Dec-2023 
 ******************************************
 %nproc=26
 Will use up to   26 processors via shared memory.
 %mem=16GB
 %chk=/home/exlonk/in_progress/4010.chk
 ------------------------------
 #p MN15/6-311++G(d,p) opt freq
 ------------------------------
 1/18=20,19=15,26=3,38=1/1,3;
 2/9=110,12=2,17=6,18=5,40=1/2;
 3/5=4,6=6,7=1111,11=2,25=1,30=1,71=1,74=-73/1,2,3;
 4//1;
 5/5=2,38=5/2;
 6/7=2,8=2,9=2,10=2,28=1/1;
 7//1,2,3,16;
 1/18=20,19=15,26=3/3(2);
 2/9=110/2;
 99//99;
 2/9=110/2;
 3/5=4,6=6,7=1111,11=2,25=1,30=1,71=1,74=-73/1,2,3;
 4/5=5,16=3,69=1/1;
 5/5=2,38=5/2;
 7//1,2,3,16;
 1/18=20,19=15,26=3/3(-5);
 2/9=110/2;
 6/7=2,8=2,9=2,10=2,19=2,28=1/1;
 99/9=1/99;
 Leave Link    1 at Wed Dec  6 10:02:04 2023, MaxMem=  2147483648 cpu:               4.0 elap:               0.2
 (Enter /opt/gaussian/g16-c01/g16/l101.exe)
 ---------------
 name file: 4010
 ---------------
 Symbolic Z-matrix:
 Charge =  0 Multiplicity = 1
 C                     2.31529  -1.08602  -0.88129 
 C                     3.34042  -0.4252   -0.31434 
 C                     4.76696  -0.71613  -0.58458 
 N                     4.97862  -1.7018   -1.48606 
 C                     6.25055  -1.99243  -1.76404 
 N                     7.32635  -1.40249  -1.23588 
 C                     7.10611  -0.43066  -0.34526 
 C                     8.21247   0.19549   0.21627 
 C                     8.0886    1.21985   1.15756 
 C                     6.82751   1.63668   1.55365 
 C                     5.70085   1.02601   1.004 
 C                     5.82079  -0.01927   0.04381 
 C                     0.90303  -0.77642  -0.62322 
 C                     0.4213   -0.49972   0.66062 
 C                    -0.93651  -0.22935   0.86894 
 C                    -1.84969  -0.23805  -0.19858 
 N                    -3.24853   0.04687   0.01499 
 C                    -3.9223   -0.47089   1.18254 
 C                    -3.6748   -1.77665   1.64256 
 C                    -4.3276   -2.27717   2.77229 
 C                    -5.23797  -1.48037   3.46231 
 C                    -5.49711  -0.184     3.0244 
 C                    -4.84576   0.31613   1.89353 
 C                    -3.97548   0.85041  -0.93999 
 C                    -3.3882    1.98512  -1.5277 
 C                    -4.09127   2.76249  -2.45176 
 C                    -5.39349   2.4179   -2.80548 
 C                    -5.99368   1.29697  -2.23665 
 C                    -5.29118   0.52067  -1.31095 
 C                    -1.3588   -0.53549  -1.48067 
 C                    -0.00174  -0.80717  -1.68901 
 H                     2.49759  -1.88457  -1.59779 
 H                     3.12521   0.38527   0.37007 
 H                     6.42806  -2.78121  -2.48729 
 H                     9.2067   -0.12551  -0.08882 
 H                     8.9781    1.68516   1.57481 
 H                     6.71776   2.43282   2.28611 
 H                     4.72752   1.37557   1.33584 
 H                     1.09101  -0.49882   1.51684 
 H                    -1.27527   0.00298   1.87606 
 H                    -2.98126  -2.42209   1.10848 
 H                    -4.12616  -3.29074   3.10845 
 H                    -5.74548  -1.86967   4.3411 
 H                    -6.20396   0.44214   3.56249 
 H                    -5.05077   1.33664   1.57826 
 H                    -2.37831   2.28097  -1.25438 
 H                    -3.62008   3.63711  -2.89225 
 H                    -5.9397    3.0215   -3.52554 
 H                    -7.00727   1.02055  -2.51534 
 H                    -5.77192  -0.36077  -0.89289 
 H                    -2.0367   -0.57604  -2.33021 
 H                     0.34021  -1.0366   -2.69603 
 
 ITRead=  0  0  0  0  0  0  0  0  0  0  0  0  0  0  0  0  0  0  0  0
 ITRead=  0  0  0  0  0  0  0  0  0  0  0  0  0  0  0  0  0  0  0  0
 ITRead=  0  0  0  0  0  0  0  0  0  0  0  0
 MicOpt= -1 -1 -1 -1 -1 -1 -1 -1 -1 -1 -1 -1 -1 -1 -1 -1 -1 -1 -1 -1
 MicOpt= -1 -1 -1 -1 -1 -1 -1 -1 -1 -1 -1 -1 -1 -1 -1 -1 -1 -1 -1 -1
 MicOpt= -1 -1 -1 -1 -1 -1 -1 -1 -1 -1 -1 -1
 NAtoms=     52 NQM=       52 NQMF=       0 NMMI=      0 NMMIF=      0
                NMic=       0 NMicF=      0.
                    Isotopes and Nuclear Properties:
 (Nuclear quadrupole moments (NQMom) in fm**2, nuclear magnetic moments (NMagM)
  in nuclear magnetons)

  Atom         1           2           3           4           5           6           7           8           9          10
 IAtWgt=          12          12          12          14          12          14          12          12          12          12
 AtmWgt=  12.0000000  12.0000000  12.0000000  14.0030740  12.0000000  14.0030740  12.0000000  12.0000000  12.0000000  12.0000000
 NucSpn=           0           0           0           2           0           2           0           0           0           0
 AtZEff=  -0.0000000  -0.0000000  -0.0000000  -0.0000000  -0.0000000  -0.0000000  -0.0000000  -0.0000000  -0.0000000  -0.0000000
 NQMom=    0.0000000   0.0000000   0.0000000   2.0440000   0.0000000   2.0440000   0.0000000   0.0000000   0.0000000   0.0000000
 NMagM=    0.0000000   0.0000000   0.0000000   0.4037610   0.0000000   0.4037610   0.0000000   0.0000000   0.0000000   0.0000000
 AtZNuc=   6.0000000   6.0000000   6.0000000   7.0000000   6.0000000   7.0000000   6.0000000   6.0000000   6.0000000   6.0000000

  Atom        11          12          13          14          15          16          17          18          19          20
 IAtWgt=          12          12          12          12          12          12          14          12          12          12
 AtmWgt=  12.0000000  12.0000000  12.0000000  12.0000000  12.0000000  12.0000000  14.0030740  12.0000000  12.0000000  12.0000000
 NucSpn=           0           0           0           0           0           0           2           0           0           0
 AtZEff=  -0.0000000  -0.0000000  -0.0000000  -0.0000000  -0.0000000  -0.0000000  -0.0000000  -0.0000000  -0.0000000  -0.0000000
 NQMom=    0.0000000   0.0000000   0.0000000   0.0000000   0.0000000   0.0000000   2.0440000   0.0000000   0.0000000   0.0000000
 NMagM=    0.0000000   0.0000000   0.0000000   0.0000000   0.0000000   0.0000000   0.4037610   0.0000000   0.0000000   0.0000000
 AtZNuc=   6.0000000   6.0000000   6.0000000   6.0000000   6.0000000   6.0000000   7.0000000   6.0000000   6.0000000   6.0000000

  Atom        21          22          23          24          25          26          27          28          29          30
 IAtWgt=          12          12          12          12          12          12          12          12          12          12
 AtmWgt=  12.0000000  12.0000000  12.0000000  12.0000000  12.0000000  12.0000000  12.0000000  12.0000000  12.0000000  12.0000000
 NucSpn=           0           0           0           0           0           0           0           0           0           0
 AtZEff=  -0.0000000  -0.0000000  -0.0000000  -0.0000000  -0.0000000  -0.0000000  -0.0000000  -0.0000000  -0.0000000  -0.0000000
 NQMom=    0.0000000   0.0000000   0.0000000   0.0000000   0.0000000   0.0000000   0.0000000   0.0000000   0.0000000   0.0000000
 NMagM=    0.0000000   0.0000000   0.0000000   0.0000000   0.0000000   0.0000000   0.0000000   0.0000000   0.0000000   0.0000000
 AtZNuc=   6.0000000   6.0000000   6.0000000   6.0000000   6.0000000   6.0000000   6.0000000   6.0000000   6.0000000   6.0000000

  Atom        31          32          33          34          35          36          37          38          39          40
 IAtWgt=          12           1           1           1           1           1           1           1           1           1
 AtmWgt=  12.0000000   1.0078250   1.0078250   1.0078250   1.0078250   1.0078250   1.0078250   1.0078250   1.0078250   1.0078250
 NucSpn=           0           1           1           1           1           1           1           1           1           1
 AtZEff=  -0.0000000  -0.0000000  -0.0000000  -0.0000000  -0.0000000  -0.0000000  -0.0000000  -0.0000000  -0.0000000  -0.0000000
 NQMom=    0.0000000   0.0000000   0.0000000   0.0000000   0.0000000   0.0000000   0.0000000   0.0000000   0.0000000   0.0000000
 NMagM=    0.0000000   2.7928460   2.7928460   2.7928460   2.7928460   2.7928460   2.7928460   2.7928460   2.7928460   2.7928460
 AtZNuc=   6.0000000   1.0000000   1.0000000   1.0000000   1.0000000   1.0000000   1.0000000   1.0000000   1.0000000   1.0000000

  Atom        41          42          43          44          45          46          47          48          49          50
 IAtWgt=           1           1           1           1           1           1           1           1           1           1
 AtmWgt=   1.0078250   1.0078250   1.0078250   1.0078250   1.0078250   1.0078250   1.0078250   1.0078250   1.0078250   1.0078250
 NucSpn=           1           1           1           1           1           1           1           1           1           1
 AtZEff=  -0.0000000  -0.0000000  -0.0000000  -0.0000000  -0.0000000  -0.0000000  -0.0000000  -0.0000000  -0.0000000  -0.0000000
 NQMom=    0.0000000   0.0000000   0.0000000   0.0000000   0.0000000   0.0000000   0.0000000   0.0000000   0.0000000   0.0000000
 NMagM=    2.7928460   2.7928460   2.7928460   2.7928460   2.7928460   2.7928460   2.7928460   2.7928460   2.7928460   2.7928460
 AtZNuc=   1.0000000   1.0000000   1.0000000   1.0000000   1.0000000   1.0000000   1.0000000   1.0000000   1.0000000   1.0000000

  Atom        51          52
 IAtWgt=           1           1
 AtmWgt=   1.0078250   1.0078250
 NucSpn=           1           1
 AtZEff=  -0.0000000  -0.0000000
 NQMom=    0.0000000   0.0000000
 NMagM=    2.7928460   2.7928460
 AtZNuc=   1.0000000   1.0000000
 Leave Link  101 at Wed Dec  6 10:02:05 2023, MaxMem=  2147483648 cpu:               7.4 elap:               0.3
 (Enter /opt/gaussian/g16-c01/g16/l103.exe)

 GradGradGradGradGradGradGradGradGradGradGradGradGradGradGradGradGradGrad
 Berny optimization.
 Initialization pass.
                           ----------------------------
                           !    Initial Parameters    !
                           ! (Angstroms and Degrees)  !
 --------------------------                            --------------------------
 ! Name  Definition              Value          Derivative Info.                !
 --------------------------------------------------------------------------------
 ! R1    R(1,2)                  1.345          estimate D2E/DX2                !
 ! R2    R(1,13)                 1.4687         estimate D2E/DX2                !
 ! R3    R(1,32)                 1.0882         estimate D2E/DX2                !
 ! R4    R(2,3)                  1.4808         estimate D2E/DX2                !
 ! R5    R(2,33)                 1.0824         estimate D2E/DX2                !
 ! R6    R(3,4)                  1.3524         estimate D2E/DX2                !
 ! R7    R(3,12)                 1.411          estimate D2E/DX2                !
 ! R8    R(4,5)                  1.334          estimate D2E/DX2                !
 ! R9    R(5,6)                  1.3358         estimate D2E/DX2                !
 ! R10   R(5,34)                 1.0848         estimate D2E/DX2                !
 ! R11   R(6,7)                  1.3365         estimate D2E/DX2                !
 ! R12   R(7,8)                  1.3898         estimate D2E/DX2                !
 ! R13   R(7,12)                 1.4045         estimate D2E/DX2                !
 ! R14   R(8,9)                  1.3967         estimate D2E/DX2                !
 ! R15   R(8,35)                 1.0884         estimate D2E/DX2                !
 ! R16   R(9,10)                 1.386          estimate D2E/DX2                !
 ! R17   R(9,36)                 1.0871         estimate D2E/DX2                !
 ! R18   R(10,11)                1.3944         estimate D2E/DX2                !
 ! R19   R(10,37)                1.0874         estimate D2E/DX2                !
 ! R20   R(11,12)                1.4244         estimate D2E/DX2                !
 ! R21   R(11,38)                1.0861         estimate D2E/DX2                !
 ! R22   R(13,14)                1.3989         estimate D2E/DX2                !
 ! R23   R(13,31)                1.3984         estimate D2E/DX2                !
 ! R24   R(14,15)                1.4            estimate D2E/DX2                !
 ! R25   R(14,39)                1.087          estimate D2E/DX2                !
 ! R26   R(15,16)                1.4048         estimate D2E/DX2                !
 ! R27   R(15,40)                1.0877         estimate D2E/DX2                !
 ! R28   R(16,17)                1.4434         estimate D2E/DX2                !
 ! R29   R(16,30)                1.4047         estimate D2E/DX2                !
 ! R30   R(17,18)                1.444          estimate D2E/DX2                !
 ! R31   R(17,24)                1.4443         estimate D2E/DX2                !
 ! R32   R(18,19)                1.4064         estimate D2E/DX2                !
 ! R33   R(18,23)                1.4063         estimate D2E/DX2                !
 ! R34   R(19,20)                1.3975         estimate D2E/DX2                !
 ! R35   R(19,41)                1.0876         estimate D2E/DX2                !
 ! R36   R(20,21)                1.3928         estimate D2E/DX2                !
 ! R37   R(20,42)                1.0867         estimate D2E/DX2                !
 ! R38   R(21,22)                1.3926         estimate D2E/DX2                !
 ! R39   R(21,43)                1.0869         estimate D2E/DX2                !
 ! R40   R(22,23)                1.3976         estimate D2E/DX2                !
 ! R41   R(22,44)                1.0868         estimate D2E/DX2                !
 ! R42   R(23,45)                1.0876         estimate D2E/DX2                !
 ! R43   R(24,25)                1.4064         estimate D2E/DX2                !
 ! R44   R(24,29)                1.4062         estimate D2E/DX2                !
 ! R45   R(25,26)                1.3973         estimate D2E/DX2                !
 ! R46   R(25,46)                1.0873         estimate D2E/DX2                !
 ! R47   R(26,27)                1.3927         estimate D2E/DX2                !
 ! R48   R(26,47)                1.0867         estimate D2E/DX2                !
 ! R49   R(27,28)                1.3929         estimate D2E/DX2                !
 ! R50   R(27,48)                1.0868         estimate D2E/DX2                !
 ! R51   R(28,29)                1.3975         estimate D2E/DX2                !
 ! R52   R(28,49)                1.0869         estimate D2E/DX2                !
 ! R53   R(29,50)                1.0876         estimate D2E/DX2                !
 ! R54   R(30,31)                1.3996         estimate D2E/DX2                !
 ! R55   R(30,51)                1.0876         estimate D2E/DX2                !
 ! R56   R(31,52)                1.088          estimate D2E/DX2                !
 ! A1    A(2,1,13)             123.7292         estimate D2E/DX2                !
 ! A2    A(2,1,32)             120.6894         estimate D2E/DX2                !
 ! A3    A(13,1,32)            115.5608         estimate D2E/DX2                !
 ! A4    A(1,2,3)              124.1114         estimate D2E/DX2                !
 ! A5    A(1,2,33)             118.8739         estimate D2E/DX2                !
 ! A6    A(3,2,33)             117.0039         estimate D2E/DX2                !
 ! A7    A(2,3,4)              114.5581         estimate D2E/DX2                !
 ! A8    A(2,3,12)             122.7645         estimate D2E/DX2                !
 ! A9    A(4,3,12)             122.6772         estimate D2E/DX2                !
 ! A10   A(3,4,5)              116.5456         estimate D2E/DX2                !
 ! A11   A(4,5,6)              126.1063         estimate D2E/DX2                !
 ! A12   A(4,5,34)             116.9605         estimate D2E/DX2                !
 ! A13   A(6,5,34)             116.9332         estimate D2E/DX2                !
 ! A14   A(5,6,7)              116.8667         estimate D2E/DX2                !
 ! A15   A(6,7,8)              117.7551         estimate D2E/DX2                !
 ! A16   A(6,7,12)             123.257          estimate D2E/DX2                !
 ! A17   A(8,7,12)             118.9879         estimate D2E/DX2                !
 ! A18   A(7,8,9)              122.1511         estimate D2E/DX2                !
 ! A19   A(7,8,35)             118.7553         estimate D2E/DX2                !
 ! A20   A(9,8,35)             119.0936         estimate D2E/DX2                !
 ! A21   A(8,9,10)             119.5951         estimate D2E/DX2                !
 ! A22   A(8,9,36)             120.002          estimate D2E/DX2                !
 ! A23   A(10,9,36)            120.403          estimate D2E/DX2                !
 ! A24   A(9,10,11)            119.3946         estimate D2E/DX2                !
 ! A25   A(9,10,37)            120.2998         estimate D2E/DX2                !
 ! A26   A(11,10,37)           120.3056         estimate D2E/DX2                !
 ! A27   A(10,11,12)           121.2682         estimate D2E/DX2                !
 ! A28   A(10,11,38)           117.5613         estimate D2E/DX2                !
 ! A29   A(12,11,38)           121.1704         estimate D2E/DX2                !
 ! A30   A(3,12,7)             114.5471         estimate D2E/DX2                !
 ! A31   A(3,12,11)            126.8498         estimate D2E/DX2                !
 ! A32   A(7,12,11)            118.6031         estimate D2E/DX2                !
 ! A33   A(1,13,14)            122.284          estimate D2E/DX2                !
 ! A34   A(1,13,31)            118.9213         estimate D2E/DX2                !
 ! A35   A(14,13,31)           118.752          estimate D2E/DX2                !
 ! A36   A(13,14,15)           120.5797         estimate D2E/DX2                !
 ! A37   A(13,14,39)           120.7236         estimate D2E/DX2                !
 ! A38   A(15,14,39)           118.6945         estimate D2E/DX2                !
 ! A39   A(14,15,16)           121.0743         estimate D2E/DX2                !
 ! A40   A(14,15,40)           118.7564         estimate D2E/DX2                !
 ! A41   A(16,15,40)           120.1641         estimate D2E/DX2                !
 ! A42   A(15,16,17)           121.0836         estimate D2E/DX2                !
 ! A43   A(15,16,30)           117.8857         estimate D2E/DX2                !
 ! A44   A(17,16,30)           121.0306         estimate D2E/DX2                !
 ! A45   A(16,17,18)           120.0679         estimate D2E/DX2                !
 ! A46   A(16,17,24)           119.9832         estimate D2E/DX2                !
 ! A47   A(18,17,24)           119.9489         estimate D2E/DX2                !
 ! A48   A(17,18,19)           121.0143         estimate D2E/DX2                !
 ! A49   A(17,18,23)           120.9645         estimate D2E/DX2                !
 ! A50   A(19,18,23)           118.0213         estimate D2E/DX2                !
 ! A51   A(18,19,20)           120.9805         estimate D2E/DX2                !
 ! A52   A(18,19,41)           120.1729         estimate D2E/DX2                !
 ! A53   A(20,19,41)           118.8365         estimate D2E/DX2                !
 ! A54   A(19,20,21)           120.0627         estimate D2E/DX2                !
 ! A55   A(19,20,42)           119.8371         estimate D2E/DX2                !
 ! A56   A(21,20,42)           120.0998         estimate D2E/DX2                !
 ! A57   A(20,21,22)           119.893          estimate D2E/DX2                !
 ! A58   A(20,21,43)           120.0567         estimate D2E/DX2                !
 ! A59   A(22,21,43)           120.0502         estimate D2E/DX2                !
 ! A60   A(21,22,23)           120.0548         estimate D2E/DX2                !
 ! A61   A(21,22,44)           120.1069         estimate D2E/DX2                !
 ! A62   A(23,22,44)           119.838          estimate D2E/DX2                !
 ! A63   A(18,23,22)           120.9876         estimate D2E/DX2                !
 ! A64   A(18,23,45)           120.1553         estimate D2E/DX2                !
 ! A65   A(22,23,45)           118.8481         estimate D2E/DX2                !
 ! A66   A(17,24,25)           120.9977         estimate D2E/DX2                !
 ! A67   A(17,24,29)           120.9898         estimate D2E/DX2                !
 ! A68   A(25,24,29)           118.0124         estimate D2E/DX2                !
 ! A69   A(24,25,26)           121.0054         estimate D2E/DX2                !
 ! A70   A(24,25,46)           120.1569         estimate D2E/DX2                !
 ! A71   A(26,25,46)           118.8301         estimate D2E/DX2                !
 ! A72   A(25,26,27)           120.0507         estimate D2E/DX2                !
 ! A73   A(25,26,47)           119.8436         estimate D2E/DX2                !
 ! A74   A(27,26,47)           120.1057         estimate D2E/DX2                !
 ! A75   A(26,27,28)           119.8858         estimate D2E/DX2                !
 ! A76   A(26,27,48)           120.051          estimate D2E/DX2                !
 ! A77   A(28,27,48)           120.0631         estimate D2E/DX2                !
 ! A78   A(27,28,29)           120.0607         estimate D2E/DX2                !
 ! A79   A(27,28,49)           120.1153         estimate D2E/DX2                !
 ! A80   A(29,28,49)           119.8231         estimate D2E/DX2                !
 ! A81   A(24,29,28)           120.9849         estimate D2E/DX2                !
 ! A82   A(24,29,50)           120.1468         estimate D2E/DX2                !
 ! A83   A(28,29,50)           118.8566         estimate D2E/DX2                !
 ! A84   A(16,30,31)           121.0518         estimate D2E/DX2                !
 ! A85   A(16,30,51)           120.1985         estimate D2E/DX2                !
 ! A86   A(31,30,51)           118.7405         estimate D2E/DX2                !
 ! A87   A(13,31,30)           120.6395         estimate D2E/DX2                !
 ! A88   A(13,31,52)           120.4467         estimate D2E/DX2                !
 ! A89   A(30,31,52)           118.9125         estimate D2E/DX2                !
 ! D1    D(13,1,2,3)          -178.9995         estimate D2E/DX2                !
 ! D2    D(13,1,2,33)           -0.2328         estimate D2E/DX2                !
 ! D3    D(32,1,2,3)            -0.7263         estimate D2E/DX2                !
 ! D4    D(32,1,2,33)          178.0404         estimate D2E/DX2                !
 ! D5    D(2,1,13,14)          -42.5272         estimate D2E/DX2                !
 ! D6    D(2,1,13,31)          139.883          estimate D2E/DX2                !
 ! D7    D(32,1,13,14)         139.1189         estimate D2E/DX2                !
 ! D8    D(32,1,13,31)         -38.4709         estimate D2E/DX2                !
 ! D9    D(1,2,3,4)              1.2866         estimate D2E/DX2                !
 ! D10   D(1,2,3,12)          -178.902          estimate D2E/DX2                !
 ! D11   D(33,2,3,4)          -177.5012         estimate D2E/DX2                !
 ! D12   D(33,2,3,12)            2.3102         estimate D2E/DX2                !
 ! D13   D(2,3,4,5)            179.6996         estimate D2E/DX2                !
 ! D14   D(12,3,4,5)            -0.112          estimate D2E/DX2                !
 ! D15   D(2,3,12,7)          -179.6668         estimate D2E/DX2                !
 ! D16   D(2,3,12,11)            0.3881         estimate D2E/DX2                !
 ! D17   D(4,3,12,7)             0.1294         estimate D2E/DX2                !
 ! D18   D(4,3,12,11)         -179.8157         estimate D2E/DX2                !
 ! D19   D(3,4,5,6)              0.0271         estimate D2E/DX2                !
 ! D20   D(3,4,5,34)          -179.9231         estimate D2E/DX2                !
 ! D21   D(4,5,6,7)              0.0321         estimate D2E/DX2                !
 ! D22   D(34,5,6,7)           179.9824         estimate D2E/DX2                !
 ! D23   D(5,6,7,8)            179.9796         estimate D2E/DX2                !
 ! D24   D(5,6,7,12)            -0.0086         estimate D2E/DX2                !
 ! D25   D(6,7,8,9)           -179.871          estimate D2E/DX2                !
 ! D26   D(6,7,8,35)             0.0815         estimate D2E/DX2                !
 ! D27   D(12,7,8,9)             0.1178         estimate D2E/DX2                !
 ! D28   D(12,7,8,35)         -179.9298         estimate D2E/DX2                !
 ! D29   D(6,7,12,3)            -0.0667         estimate D2E/DX2                !
 ! D30   D(6,7,12,11)          179.8833         estimate D2E/DX2                !
 ! D31   D(8,7,12,3)           179.9452         estimate D2E/DX2                !
 ! D32   D(8,7,12,11)           -0.1048         estimate D2E/DX2                !
 ! D33   D(7,8,9,10)            -0.0392         estimate D2E/DX2                !
 ! D34   D(7,8,9,36)           179.9665         estimate D2E/DX2                !
 ! D35   D(35,8,9,10)         -179.9915         estimate D2E/DX2                !
 ! D36   D(35,8,9,36)            0.0142         estimate D2E/DX2                !
 ! D37   D(8,9,10,11)           -0.0504         estimate D2E/DX2                !
 ! D38   D(8,9,10,37)          179.9672         estimate D2E/DX2                !
 ! D39   D(36,9,10,11)         179.9439         estimate D2E/DX2                !
 ! D40   D(36,9,10,37)          -0.0385         estimate D2E/DX2                !
 ! D41   D(9,10,11,12)           0.0602         estimate D2E/DX2                !
 ! D42   D(9,10,11,38)         179.9762         estimate D2E/DX2                !
 ! D43   D(37,10,11,12)       -179.9573         estimate D2E/DX2                !
 ! D44   D(37,10,11,38)         -0.0413         estimate D2E/DX2                !
 ! D45   D(10,11,12,3)         179.9613         estimate D2E/DX2                !
 ! D46   D(10,11,12,7)           0.0182         estimate D2E/DX2                !
 ! D47   D(38,11,12,3)           0.0484         estimate D2E/DX2                !
 ! D48   D(38,11,12,7)        -179.8948         estimate D2E/DX2                !
 ! D49   D(1,13,14,15)        -179.0014         estimate D2E/DX2                !
 ! D50   D(1,13,14,39)           0.4582         estimate D2E/DX2                !
 ! D51   D(31,13,14,15)         -1.4076         estimate D2E/DX2                !
 ! D52   D(31,13,14,39)        178.052          estimate D2E/DX2                !
 ! D53   D(1,13,31,30)         179.1514         estimate D2E/DX2                !
 ! D54   D(1,13,31,52)          -1.2585         estimate D2E/DX2                !
 ! D55   D(14,13,31,30)          1.4755         estimate D2E/DX2                !
 ! D56   D(14,13,31,52)       -178.9344         estimate D2E/DX2                !
 ! D57   D(13,14,15,16)          0.4676         estimate D2E/DX2                !
 ! D58   D(13,14,15,40)       -178.7022         estimate D2E/DX2                !
 ! D59   D(39,14,15,16)       -179.0028         estimate D2E/DX2                !
 ! D60   D(39,14,15,40)          1.8274         estimate D2E/DX2                !
 ! D61   D(14,15,16,17)       -179.7047         estimate D2E/DX2                !
 ! D62   D(14,15,16,30)          0.4182         estimate D2E/DX2                !
 ! D63   D(40,15,16,17)         -0.5465         estimate D2E/DX2                !
 ! D64   D(40,15,16,30)        179.5764         estimate D2E/DX2                !
 ! D65   D(15,16,17,18)        -40.0251         estimate D2E/DX2                !
 ! D66   D(15,16,17,24)        139.9855         estimate D2E/DX2                !
 ! D67   D(30,16,17,18)        139.8481         estimate D2E/DX2                !
 ! D68   D(30,16,17,24)        -40.1413         estimate D2E/DX2                !
 ! D69   D(15,16,30,31)         -0.3509         estimate D2E/DX2                !
 ! D70   D(15,16,30,51)        178.5306         estimate D2E/DX2                !
 ! D71   D(17,16,30,31)        179.772          estimate D2E/DX2                !
 ! D72   D(17,16,30,51)         -1.3465         estimate D2E/DX2                !
 ! D73   D(16,17,18,19)        -40.5511         estimate D2E/DX2                !
 ! D74   D(16,17,18,23)        139.4474         estimate D2E/DX2                !
 ! D75   D(24,17,18,19)        139.4383         estimate D2E/DX2                !
 ! D76   D(24,17,18,23)        -40.5632         estimate D2E/DX2                !
 ! D77   D(16,17,24,25)        -40.4941         estimate D2E/DX2                !
 ! D78   D(16,17,24,29)        139.437          estimate D2E/DX2                !
 ! D79   D(18,17,24,25)        139.5164         estimate D2E/DX2                !
 ! D80   D(18,17,24,29)        -40.5525         estimate D2E/DX2                !
 ! D81   D(17,18,19,20)       -179.977          estimate D2E/DX2                !
 ! D82   D(17,18,19,41)         -1.1457         estimate D2E/DX2                !
 ! D83   D(23,18,19,20)          0.0245         estimate D2E/DX2                !
 ! D84   D(23,18,19,41)        178.8558         estimate D2E/DX2                !
 ! D85   D(17,18,23,22)       -179.9333         estimate D2E/DX2                !
 ! D86   D(17,18,23,45)         -1.0386         estimate D2E/DX2                !
 ! D87   D(19,18,23,22)          0.0652         estimate D2E/DX2                !
 ! D88   D(19,18,23,45)        178.9599         estimate D2E/DX2                !
 ! D89   D(18,19,20,21)         -0.0679         estimate D2E/DX2                !
 ! D90   D(18,19,20,42)        179.6821         estimate D2E/DX2                !
 ! D91   D(41,19,20,21)       -178.9146         estimate D2E/DX2                !
 ! D92   D(41,19,20,42)          0.8355         estimate D2E/DX2                !
 ! D93   D(19,20,21,22)          0.0215         estimate D2E/DX2                !
 ! D94   D(19,20,21,43)       -179.9863         estimate D2E/DX2                !
 ! D95   D(42,20,21,22)       -179.7278         estimate D2E/DX2                !
 ! D96   D(42,20,21,43)          0.2643         estimate D2E/DX2                !
 ! D97   D(20,21,22,23)          0.0673         estimate D2E/DX2                !
 ! D98   D(20,21,22,44)       -179.762          estimate D2E/DX2                !
 ! D99   D(43,21,22,23)       -179.9249         estimate D2E/DX2                !
 ! D100  D(43,21,22,44)          0.2458         estimate D2E/DX2                !
 ! D101  D(21,22,23,18)         -0.1118         estimate D2E/DX2                !
 ! D102  D(21,22,23,45)       -179.0207         estimate D2E/DX2                !
 ! D103  D(44,22,23,18)        179.7179         estimate D2E/DX2                !
 ! D104  D(44,22,23,45)          0.809          estimate D2E/DX2                !
 ! D105  D(17,24,25,26)        179.9894         estimate D2E/DX2                !
 ! D106  D(17,24,25,46)         -1.0279         estimate D2E/DX2                !
 ! D107  D(29,24,25,26)          0.0563         estimate D2E/DX2                !
 ! D108  D(29,24,25,46)        179.0389         estimate D2E/DX2                !
 ! D109  D(17,24,29,28)       -179.8924         estimate D2E/DX2                !
 ! D110  D(17,24,29,50)         -1.1509         estimate D2E/DX2                !
 ! D111  D(25,24,29,28)          0.0407         estimate D2E/DX2                !
 ! D112  D(25,24,29,50)        178.7822         estimate D2E/DX2                !
 ! D113  D(24,25,26,27)         -0.073          estimate D2E/DX2                !
 ! D114  D(24,25,26,47)        179.8289         estimate D2E/DX2                !
 ! D115  D(46,25,26,27)       -179.0689         estimate D2E/DX2                !
 ! D116  D(46,25,26,47)          0.833          estimate D2E/DX2                !
 ! D117  D(25,26,27,28)         -0.0083         estimate D2E/DX2                !
 ! D118  D(25,26,27,48)       -179.8904         estimate D2E/DX2                !
 ! D119  D(47,26,27,28)       -179.91           estimate D2E/DX2                !
 ! D120  D(47,26,27,48)          0.208          estimate D2E/DX2                !
 ! D121  D(26,27,28,29)          0.1044         estimate D2E/DX2                !
 ! D122  D(26,27,28,49)       -179.5638         estimate D2E/DX2                !
 ! D123  D(48,27,28,29)        179.9865         estimate D2E/DX2                !
 ! D124  D(48,27,28,49)          0.3183         estimate D2E/DX2                !
 ! D125  D(27,28,29,24)         -0.1215         estimate D2E/DX2                !
 ! D126  D(27,28,29,50)       -178.8789         estimate D2E/DX2                !
 ! D127  D(49,28,29,24)        179.5477         estimate D2E/DX2                !
 ! D128  D(49,28,29,50)          0.7903         estimate D2E/DX2                !
 ! D129  D(16,30,31,13)         -0.6042         estimate D2E/DX2                !
 ! D130  D(16,30,31,52)        179.7995         estimate D2E/DX2                !
 ! D131  D(51,30,31,13)       -179.5016         estimate D2E/DX2                !
 ! D132  D(51,30,31,52)          0.9021         estimate D2E/DX2                !
 --------------------------------------------------------------------------------
 Trust Radius=3.00D-01 FncErr=1.00D-07 GrdErr=1.00D-06 EigMax=2.50D+02 EigMin=1.00D-04
 Number of steps in this run=    287 maximum allowed number of steps=    312.
 GradGradGradGradGradGradGradGradGradGradGradGradGradGradGradGradGradGrad

 Leave Link  103 at Wed Dec  6 10:02:05 2023, MaxMem=  2147483648 cpu:               0.6 elap:               0.0
 (Enter /opt/gaussian/g16-c01/g16/l202.exe)
 Stoichiometry    C28H21N3
 Framework group  C1[X(C28H21N3)]
 Deg. of freedom   150
 Full point group                 C1      NOp   1
 Largest Abelian subgroup         C1      NOp   1
 Largest concise Abelian subgroup C1      NOp   1
                         Standard orientation:                         
 ---------------------------------------------------------------------
 Center     Atomic      Atomic             Coordinates (Angstroms)
 Number     Number       Type             X           Y           Z
 ---------------------------------------------------------------------
      1          6           0       -2.120380   -0.297028   -1.148051
      2          6           0       -3.100015   -0.061105   -0.257166
      3          6           0       -4.544625   -0.175357   -0.561713
      4          7           0       -4.823268   -0.570082   -1.824867
      5          6           0       -6.113655   -0.692140   -2.140378
      6          7           0       -7.148059   -0.460898   -1.327443
      7          6           0       -6.861747   -0.070149   -0.081849
      8          6           0       -7.924193    0.175996    0.779567
      9          6           0       -7.730466    0.590641    2.099124
     10          6           0       -6.442218    0.765839    2.579440
     11          6           0       -5.358501    0.523762    1.736032
     12          6           0       -5.549731    0.100916    0.389335
     13          6           0       -0.689515   -0.201671   -0.831076
     14          6           0       -0.162883    0.839808   -0.059819
     15          6           0        1.210563    0.907109    0.203338
     16          6           0        2.094528   -0.059000   -0.305388
     17          7           0        3.509738    0.006664   -0.028961
     18          6           0        4.189725    1.280559   -0.034902
     19          6           0        3.896227    2.254107   -1.006468
     20          6           0        4.555068    3.486527   -1.011841
     21          6           0        5.517605    3.767328   -0.045156
     22          6           0        5.822874    2.817728    0.926719
     23          6           0        5.165445    1.584426    0.931186
     24          6           0        4.246855   -1.202835    0.253690
     25          6           0        3.695749   -2.215358    1.059254
     26          6           0        4.408640   -3.385641    1.332628
     27          6           0        5.684619   -3.564590    0.803943
     28          6           0        6.248735   -2.575070    0.002131
     29          6           0        5.536500   -1.403776   -0.269598
     30          6           0        1.557867   -1.090024   -1.094168
     31          6           0        0.185113   -1.156782   -1.358563
     32          1           0       -2.356578   -0.604240   -2.164966
     33          1           0       -2.831253    0.211858    0.755180
     34          1           0       -6.344814   -1.009646   -3.151580
     35          1           0       -8.939304    0.041124    0.410831
     36          1           0       -8.587243    0.773818    2.742708
     37          1           0       -6.278169    1.088839    3.604697
     38          1           0       -4.362301    0.670764    2.143020
     39          1           0       -0.809513    1.617008    0.339502
     40          1           0        1.585285    1.717781    0.824172
     41          1           0        3.161020    2.048960   -1.781194
     42          1           0        4.317393    4.223349   -1.774421
     43          1           0        6.029810    4.725980   -0.049292
     44          1           0        6.570623    3.034669    1.685028
     45          1           0        5.407532    0.863538    1.708733
     46          1           0        2.707461   -2.089667    1.494690
     47          1           0        3.965681   -4.154682    1.959826
     48          1           0        6.238386   -4.475591    1.015106
     49          1           0        7.241446   -2.713910   -0.418218
     50          1           0        5.988115   -0.652158   -0.912984
     51          1           0        2.211086   -1.844320   -1.526901
     52          1           0       -0.192660   -1.968590   -1.976560
 ---------------------------------------------------------------------
 Rotational constants (GHZ):           0.2937134           0.0500414           0.0469576
 Leave Link  202 at Wed Dec  6 10:02:05 2023, MaxMem=  2147483648 cpu:               1.9 elap:               0.1
 (Enter /opt/gaussian/g16-c01/g16/l301.exe)
 Standard basis: 6-311++G(d,p) (5D, 7F)
 Ernie: Thresh=  0.10000D-02 Tol=  0.10000D-05 Strict=F.
 There are   860 symmetry adapted cartesian basis functions of A   symmetry.
 There are   829 symmetry adapted basis functions of A   symmetry.
   829 basis functions,  1305 primitive gaussians,   860 cartesian basis functions
   105 alpha electrons      105 beta electrons
       nuclear repulsion energy      2538.6753958456 Hartrees.
 IExCor= 7252 DFT=T Ex+Corr=MN15 ExCW=0 ScaHFX=  0.440000
 ScaDFX=  1.000000  1.000000  1.000000  1.000000 ScalE2=  1.000000  1.000000
 IRadAn=      5 IRanWt=     -1 IRanGd=            0 ICorTp=0 IEmpDi=  4
 NAtoms=   52 NActive=   52 NUniq=   52 SFac= 1.00D+00 NAtFMM=   60 NAOKFM=F Big=F
 Integral buffers will be    131072 words long.
 Raffenetti 2 integral format.
 Two-electron integral symmetry is turned on.
 Leave Link  301 at Wed Dec  6 10:02:05 2023, MaxMem=  2147483648 cpu:               1.4 elap:               0.1
 (Enter /opt/gaussian/g16-c01/g16/l302.exe)
 NPDir=0 NMtPBC=     1 NCelOv=     1 NCel=       1 NClECP=     1 NCelD=      1
         NCelK=      1 NCelE2=     1 NClLst=     1 CellRange=     0.0.
 One-electron integrals computed using PRISM.
 One-electron integral symmetry used in STVInt
 NBasis=   829 RedAO= T EigKep=  1.16D-06  NBF=   829
 NBsUse=   818 1.00D-06 EigRej=  9.21D-07 NBFU=   818
 Precomputing XC quadrature grid using
 IXCGrd= 4 IRadAn=           5 IRanWt=          -1 IRanGd=           0 AccXCQ= 0.00D+00.
 Generated NRdTot=       0 NPtTot=           0 NUsed=           0 NTot=          32
 NSgBfM=   829   829   829   829   829 MxSgAt=    52 MxSgA2=    52.
 Leave Link  302 at Wed Dec  6 10:04:23 2023, MaxMem=  2147483648 cpu:            3433.4 elap:             137.7
 (Enter /opt/gaussian/g16-c01/g16/l303.exe)
 DipDrv:  MaxL=1.
 Leave Link  303 at Wed Dec  6 10:04:34 2023, MaxMem=  2147483648 cpu:             199.3 elap:               8.1
 (Enter /opt/gaussian/g16-c01/g16/l401.exe)
 ExpMin= 3.60D-02 ExpMax= 6.29D+03 ExpMxC= 9.49D+02 IAcc=3 IRadAn=         5 AccDes= 0.00D+00
 Harris functional with IExCor= 1009 and IRadAn=       5 diagonalized for initial guess.
 HarFok:  IExCor= 1009 AccDes= 0.00D+00 IRadAn=         5 IDoV= 1 UseB2=F ITyADJ=14
 ICtDFT=  3500011 ScaDFX=  1.000000  1.000000  1.000000  1.000000
 FoFCou: FMM=F IPFlag=           0 FMFlag=      100000 FMFlg1=           0
         NFxFlg=           0 DoJE=T BraDBF=F KetDBF=T FulRan=T
         wScrn=  0.000000 ICntrl=       500 IOpCl=  0 I1Cent=   200000004 NGrid=           0
         NMat0=    1 NMatS0=      1 NMatT0=    0 NMatD0=    1 NMtDS0=    0 NMtDT0=    0
 Petite list used in FoFCou.
 Harris En= -1243.02518349228    
 JPrj=0 DoOrth=F DoCkMO=F.
 Leave Link  401 at Wed Dec  6 10:05:49 2023, MaxMem=  2147483648 cpu:            1876.3 elap:              75.3
 (Enter /opt/gaussian/g16-c01/g16/l502.exe)
 Integral symmetry usage will be decided dynamically.
 Closed shell SCF:
 Using DIIS extrapolation, IDIIS=  1040.
 NGot=  2147483648 LenX=  2145972938 LenY=  2145232478
 Requested convergence on RMS density matrix=1.00D-08 within 128 cycles.
 Requested convergence on MAX density matrix=1.00D-06.
 Requested convergence on             energy=1.00D-06.
 No special actions if energy rises.
 Fock matrices will be formed incrementally for  20 cycles.

 Cycle   1  Pass 1  IDiag  1:
 FoFJK:  IHMeth= 1 ICntrl=       0 DoSepK=F KAlg= 0 I1Cent=           0 FoldK=F
 IRaf= 700000000 NMat=       1 IRICut=       1 DoRegI=T DoRafI=F ISym2E= 0 IDoP0=0 IntGTp=1.
 FoFCou: FMM=F IPFlag=           0 FMFlag=      100000 FMFlg1=           0
         NFxFlg=           0 DoJE=F BraDBF=F KetDBF=F FulRan=T
         wScrn=  0.000000 ICntrl=         0 IOpCl=  0 I1Cent=           0 NGrid=           0
         NMat0=    1 NMatS0=      1 NMatT0=    0 NMatD0=    1 NMtDS0=    0 NMtDT0=    0
 Symmetry not used in FoFCou.
 E= -1242.02640814600    
 DIIS: error= 1.94D-02 at cycle   1 NSaved=   1.
 NSaved= 1 IEnMin= 1 EnMin= -1242.02640814600     IErMin= 1 ErrMin= 1.94D-02
 ErrMax= 1.94D-02  0.00D+00 EMaxC= 1.00D-01 BMatC= 6.81D-01 BMatP= 6.81D-01
 IDIUse=3 WtCom= 8.06D-01 WtEn= 1.94D-01
 Coeff-Com:  0.100D+01
 Coeff-En:   0.100D+01
 Coeff:      0.100D+01
 Gap=     0.193 Goal=   None    Shift=    0.000
 GapD=    0.193 DampG=1.000 DampE=0.500 DampFc=0.5000 IDamp=-1.
 Damping current iteration by 5.00D-01
 RMSDP=1.96D-02 MaxDP=4.10D+00              OVMax= 2.13D-01

 Cycle   2  Pass 1  IDiag  1:
 RMSU=  7.47D-03    CP:  8.56D-01
 E= -1242.30517547936     Delta-E=       -0.278767333361 Rises=F Damp=T
 DIIS: error= 7.15D-03 at cycle   2 NSaved=   2.
 NSaved= 2 IEnMin= 2 EnMin= -1242.30517547936     IErMin= 2 ErrMin= 7.15D-03
 ErrMax= 7.15D-03  0.00D+00 EMaxC= 1.00D-01 BMatC= 7.69D-02 BMatP= 6.81D-01
 IDIUse=3 WtCom= 9.28D-01 WtEn= 7.15D-02
 Coeff-Com: -0.491D-01 0.105D+01
 Coeff-En:   0.000D+00 0.100D+01
 Coeff:     -0.456D-01 0.105D+01
 Gap=     0.159 Goal=   None    Shift=    0.000
 RMSDP=1.72D-02 MaxDP=2.41D+00 DE=-2.79D-01 OVMax= 2.20D-01

 Cycle   3  Pass 1  IDiag  1:
 RMSU=  8.96D-03    CP:  5.33D-01  4.78D-01
 E= -1242.54297581395     Delta-E=       -0.237800334588 Rises=F Damp=F
 DIIS: error= 1.47D-02 at cycle   3 NSaved=   3.
 NSaved= 3 IEnMin= 3 EnMin= -1242.54297581395     IErMin= 2 ErrMin= 7.15D-03
 ErrMax= 1.47D-02  0.00D+00 EMaxC= 1.00D-01 BMatC= 7.85D-02 BMatP= 7.69D-02
 IDIUse=3 WtCom= 8.53D-01 WtEn= 1.47D-01
 Coeff-Com: -0.121D+00 0.587D+00 0.535D+00
 Coeff-En:   0.000D+00 0.000D+00 0.100D+01
 Coeff:     -0.104D+00 0.500D+00 0.603D+00
 Gap=     0.188 Goal=   None    Shift=    0.000
 RMSDP=4.33D-03 MaxDP=4.26D-01 DE=-2.38D-01 OVMax= 1.27D-01

 Cycle   4  Pass 1  IDiag  1:
 RMSU=  2.94D-03    CP:  5.29D-01  8.21D-01  7.94D-01
 E= -1242.59555890693     Delta-E=       -0.052583092975 Rises=F Damp=F
 DIIS: error= 8.91D-03 at cycle   4 NSaved=   4.
 NSaved= 4 IEnMin= 4 EnMin= -1242.59555890693     IErMin= 2 ErrMin= 7.15D-03
 ErrMax= 8.91D-03  0.00D+00 EMaxC= 1.00D-01 BMatC= 2.72D-02 BMatP= 7.69D-02
 IDIUse=3 WtCom= 9.11D-01 WtEn= 8.91D-02
 Coeff-Com: -0.427D-01 0.141D+00 0.392D+00 0.509D+00
 Coeff-En:   0.000D+00 0.000D+00 0.301D+00 0.699D+00
 Coeff:     -0.389D-01 0.129D+00 0.384D+00 0.526D+00
 Gap=     0.158 Goal=   None    Shift=    0.000
 RMSDP=2.59D-03 MaxDP=3.97D-01 DE=-5.26D-02 OVMax= 5.14D-02

 Cycle   5  Pass 1  IDiag  1:
 RMSU=  1.40D-03    CP:  4.96D-01  7.07D-01  8.49D-01  5.62D-01
 E= -1242.62360890488     Delta-E=       -0.028049997954 Rises=F Damp=F
 DIIS: error= 1.22D-03 at cycle   5 NSaved=   5.
 NSaved= 5 IEnMin= 5 EnMin= -1242.62360890488     IErMin= 5 ErrMin= 1.22D-03
 ErrMax= 1.22D-03  0.00D+00 EMaxC= 1.00D-01 BMatC= 6.08D-04 BMatP= 2.72D-02
 IDIUse=3 WtCom= 9.88D-01 WtEn= 1.22D-02
 Coeff-Com: -0.120D-01 0.331D-01 0.156D+00 0.250D+00 0.573D+00
 Coeff-En:   0.000D+00 0.000D+00 0.000D+00 0.000D+00 0.100D+01
 Coeff:     -0.119D-01 0.327D-01 0.154D+00 0.247D+00 0.578D+00
 Gap=     0.157 Goal=   None    Shift=    0.000
 RMSDP=3.12D-04 MaxDP=5.64D-02 DE=-2.80D-02 OVMax= 7.72D-03

 Cycle   6  Pass 1  IDiag  1:
 RMSU=  1.80D-04    CP:  4.97D-01  7.00D-01  8.57D-01  5.95D-01  8.50D-01
 E= -1242.62418385054     Delta-E=       -0.000574945663 Rises=F Damp=F
 DIIS: error= 4.58D-04 at cycle   6 NSaved=   6.
 NSaved= 6 IEnMin= 6 EnMin= -1242.62418385054     IErMin= 6 ErrMin= 4.58D-04
 ErrMax= 4.58D-04  0.00D+00 EMaxC= 1.00D-01 BMatC= 8.73D-05 BMatP= 6.08D-04
 IDIUse=3 WtCom= 9.95D-01 WtEn= 4.58D-03
 Coeff-Com: -0.386D-03-0.107D-02 0.260D-01 0.483D-01 0.296D+00 0.631D+00
 Coeff-En:   0.000D+00 0.000D+00 0.000D+00 0.000D+00 0.103D+00 0.897D+00
 Coeff:     -0.384D-03-0.106D-02 0.259D-01 0.481D-01 0.295D+00 0.632D+00
 Gap=     0.157 Goal=   None    Shift=    0.000
 RMSDP=1.18D-04 MaxDP=9.36D-03 DE=-5.75D-04 OVMax= 3.43D-03

 Cycle   7  Pass 1  IDiag  1:
 RMSU=  8.46D-05    CP:  4.98D-01  6.99D-01  8.63D-01  5.86D-01  8.52D-01
                    CP:  7.07D-01
 E= -1242.62427698144     Delta-E=       -0.000093130893 Rises=F Damp=F
 DIIS: error= 1.22D-04 at cycle   7 NSaved=   7.
 NSaved= 7 IEnMin= 7 EnMin= -1242.62427698144     IErMin= 7 ErrMin= 1.22D-04
 ErrMax= 1.22D-04  0.00D+00 EMaxC= 1.00D-01 BMatC= 8.47D-06 BMatP= 8.73D-05
 IDIUse=3 WtCom= 9.99D-01 WtEn= 1.22D-03
 Coeff-Com:  0.936D-03-0.353D-02-0.190D-03 0.592D-03 0.957D-01 0.316D+00
 Coeff-Com:  0.590D+00
 Coeff-En:   0.000D+00 0.000D+00 0.000D+00 0.000D+00 0.000D+00 0.000D+00
 Coeff-En:   0.100D+01
 Coeff:      0.935D-03-0.353D-02-0.190D-03 0.591D-03 0.955D-01 0.316D+00
 Coeff:      0.591D+00
 Gap=     0.157 Goal=   None    Shift=    0.000
 RMSDP=2.96D-05 MaxDP=5.66D-03 DE=-9.31D-05 OVMax= 1.02D-03

 Cycle   8  Pass 1  IDiag  1:
 RMSU=  2.50D-05    CP:  4.98D-01  6.99D-01  8.63D-01  5.86D-01  8.58D-01
                    CP:  7.38D-01  9.65D-01
 E= -1242.62428442537     Delta-E=       -0.000007443931 Rises=F Damp=F
 DIIS: error= 6.00D-05 at cycle   8 NSaved=   8.
 NSaved= 8 IEnMin= 8 EnMin= -1242.62428442537     IErMin= 8 ErrMin= 6.00D-05
 ErrMax= 6.00D-05  0.00D+00 EMaxC= 1.00D-01 BMatC= 1.71D-06 BMatP= 8.47D-06
 IDIUse=1 WtCom= 1.00D+00 WtEn= 0.00D+00
 Coeff-Com:  0.759D-03-0.226D-02-0.537D-02-0.101D-01 0.137D-02 0.800D-01
 Coeff-Com:  0.347D+00 0.588D+00
 Coeff:      0.759D-03-0.226D-02-0.537D-02-0.101D-01 0.137D-02 0.800D-01
 Coeff:      0.347D+00 0.588D+00
 Gap=     0.157 Goal=   None    Shift=    0.000
 RMSDP=1.56D-05 MaxDP=2.55D-03 DE=-7.44D-06 OVMax= 5.28D-04

 Cycle   9  Pass 1  IDiag  1:
 RMSU=  6.66D-06    CP:  4.97D-01  6.99D-01  8.63D-01  5.85D-01  8.64D-01
                    CP:  7.49D-01  1.04D+00  9.09D-01
 E= -1242.62428609252     Delta-E=       -0.000001667151 Rises=F Damp=F
 DIIS: error= 1.50D-05 at cycle   9 NSaved=   9.
 NSaved= 9 IEnMin= 9 EnMin= -1242.62428609252     IErMin= 9 ErrMin= 1.50D-05
 ErrMax= 1.50D-05  0.00D+00 EMaxC= 1.00D-01 BMatC= 1.20D-07 BMatP= 1.71D-06
 IDIUse=1 WtCom= 1.00D+00 WtEn= 0.00D+00
 Coeff-Com:  0.290D-03-0.767D-03-0.226D-02-0.476D-02-0.811D-02 0.966D-02
 Coeff-Com:  0.105D+00 0.265D+00 0.636D+00
 Coeff:      0.290D-03-0.767D-03-0.226D-02-0.476D-02-0.811D-02 0.966D-02
 Coeff:      0.105D+00 0.265D+00 0.636D+00
 Gap=     0.157 Goal=   None    Shift=    0.000
 RMSDP=4.32D-06 MaxDP=4.12D-04 DE=-1.67D-06 OVMax= 1.71D-04

 Cycle  10  Pass 1  IDiag  1:
 RMSU=  3.10D-06    CP:  4.97D-01  6.99D-01  8.63D-01  5.85D-01  8.64D-01
                    CP:  7.56D-01  1.05D+00  9.02D-01  9.81D-01
 E= -1242.62428623099     Delta-E=       -0.000000138474 Rises=F Damp=F
 DIIS: error= 5.66D-06 at cycle  10 NSaved=  10.
 NSaved=10 IEnMin=10 EnMin= -1242.62428623099     IErMin=10 ErrMin= 5.66D-06
 ErrMax= 5.66D-06  0.00D+00 EMaxC= 1.00D-01 BMatC= 2.23D-08 BMatP= 1.20D-07
 IDIUse=1 WtCom= 1.00D+00 WtEn= 0.00D+00
 Coeff-Com: -0.217D-04 0.127D-03 0.167D-03-0.120D-03-0.481D-02-0.141D-01
 Coeff-Com: -0.323D-01-0.148D-01 0.305D+00 0.760D+00
 Coeff:     -0.217D-04 0.127D-03 0.167D-03-0.120D-03-0.481D-02-0.141D-01
 Coeff:     -0.323D-01-0.148D-01 0.305D+00 0.760D+00
 Gap=     0.157 Goal=   None    Shift=    0.000
 RMSDP=1.95D-06 MaxDP=2.31D-04 DE=-1.38D-07 OVMax= 1.06D-04

 Cycle  11  Pass 1  IDiag  1:
 RMSU=  1.16D-06    CP:  4.97D-01  6.99D-01  8.64D-01  5.85D-01  8.64D-01
                    CP:  7.57D-01  1.06D+00  9.28D-01  1.02D+00  1.08D+00
 E= -1242.62428626218     Delta-E=       -0.000000031184 Rises=F Damp=F
 DIIS: error= 1.61D-06 at cycle  11 NSaved=  11.
 NSaved=11 IEnMin=11 EnMin= -1242.62428626218     IErMin=11 ErrMin= 1.61D-06
 ErrMax= 1.61D-06  0.00D+00 EMaxC= 1.00D-01 BMatC= 3.17D-09 BMatP= 2.23D-08
 IDIUse=1 WtCom= 1.00D+00 WtEn= 0.00D+00
 Coeff-Com: -0.387D-04 0.138D-03 0.309D-03 0.369D-03-0.186D-02-0.821D-02
 Coeff-Com: -0.271D-01-0.343D-01 0.912D-01 0.399D+00 0.580D+00
 Coeff:     -0.387D-04 0.138D-03 0.309D-03 0.369D-03-0.186D-02-0.821D-02
 Coeff:     -0.271D-01-0.343D-01 0.912D-01 0.399D+00 0.580D+00
 Gap=     0.157 Goal=   None    Shift=    0.000
 RMSDP=7.96D-07 MaxDP=8.42D-05 DE=-3.12D-08 OVMax= 2.10D-05

 Cycle  12  Pass 1  IDiag  1:
 RMSU=  4.44D-07    CP:  4.97D-01  6.99D-01  8.64D-01  5.85D-01  8.65D-01
                    CP:  7.57D-01  1.06D+00  9.39D-01  1.07D+00  1.07D+00
                    CP:  8.04D-01
 E= -1242.62428626585     Delta-E=       -0.000000003678 Rises=F Damp=F
 DIIS: error= 5.63D-07 at cycle  12 NSaved=  12.
 NSaved=12 IEnMin=12 EnMin= -1242.62428626585     IErMin=12 ErrMin= 5.63D-07
 ErrMax= 5.63D-07  0.00D+00 EMaxC= 1.00D-01 BMatC= 1.69D-10 BMatP= 3.17D-09
 IDIUse=1 WtCom= 1.00D+00 WtEn= 0.00D+00
 Coeff-Com: -0.114D-04 0.339D-04 0.102D-03 0.150D-03-0.697D-04-0.910D-03
 Coeff-Com: -0.527D-02-0.964D-02-0.831D-02 0.510D-01 0.188D+00 0.785D+00
 Coeff:     -0.114D-04 0.339D-04 0.102D-03 0.150D-03-0.697D-04-0.910D-03
 Coeff:     -0.527D-02-0.964D-02-0.831D-02 0.510D-01 0.188D+00 0.785D+00
 Gap=     0.157 Goal=   None    Shift=    0.000
 RMSDP=2.42D-07 MaxDP=2.02D-05 DE=-3.68D-09 OVMax= 1.10D-05

 Cycle  13  Pass 1  IDiag  1:
 RMSU=  1.41D-07    CP:  4.97D-01  6.99D-01  8.64D-01  5.85D-01  8.65D-01
                    CP:  7.57D-01  1.06D+00  9.39D-01  1.07D+00  1.09D+00
                    CP:  8.30D-01  1.17D+00
 E= -1242.62428626595     Delta-E=       -0.000000000100 Rises=F Damp=F
 DIIS: error= 3.29D-07 at cycle  13 NSaved=  13.
 NSaved=13 IEnMin=13 EnMin= -1242.62428626595     IErMin=13 ErrMin= 3.29D-07
 ErrMax= 3.29D-07  0.00D+00 EMaxC= 1.00D-01 BMatC= 6.07D-11 BMatP= 1.69D-10
 IDIUse=1 WtCom= 1.00D+00 WtEn= 0.00D+00
 Coeff-Com: -0.441D-06-0.221D-05 0.977D-05 0.262D-04 0.229D-03 0.778D-03
 Coeff-Com:  0.124D-02 0.473D-04-0.196D-01-0.302D-01 0.907D-02 0.433D+00
 Coeff-Com:  0.606D+00
 Coeff:     -0.441D-06-0.221D-05 0.977D-05 0.262D-04 0.229D-03 0.778D-03
 Coeff:      0.124D-02 0.473D-04-0.196D-01-0.302D-01 0.907D-02 0.433D+00
 Coeff:      0.606D+00
 Gap=     0.157 Goal=   None    Shift=    0.000
 RMSDP=1.02D-07 MaxDP=8.29D-06 DE=-9.96D-11 OVMax= 3.64D-06

 Cycle  14  Pass 1  IDiag  1:
 RMSU=  6.24D-08    CP:  4.97D-01  6.99D-01  8.64D-01  5.85D-01  8.65D-01
                    CP:  7.57D-01  1.06D+00  9.39D-01  1.07D+00  1.10D+00
                    CP:  8.61D-01  1.21D+00  8.07D-01
 E= -1242.62428626601     Delta-E=       -0.000000000057 Rises=F Damp=F
 DIIS: error= 1.31D-07 at cycle  14 NSaved=  14.
 NSaved=14 IEnMin=14 EnMin= -1242.62428626601     IErMin=14 ErrMin= 1.31D-07
 ErrMax= 1.31D-07  0.00D+00 EMaxC= 1.00D-01 BMatC= 4.88D-12 BMatP= 6.07D-11
 IDIUse=1 WtCom= 1.00D+00 WtEn= 0.00D+00
 Coeff-Com:  0.150D-05-0.559D-05-0.104D-04-0.107D-04 0.885D-04 0.423D-03
 Coeff-Com:  0.121D-02 0.150D-02-0.652D-02-0.165D-01-0.243D-01 0.507D-01
 Coeff-Com:  0.228D+00 0.766D+00
 Coeff:      0.150D-05-0.559D-05-0.104D-04-0.107D-04 0.885D-04 0.423D-03
 Coeff:      0.121D-02 0.150D-02-0.652D-02-0.165D-01-0.243D-01 0.507D-01
 Coeff:      0.228D+00 0.766D+00
 Gap=     0.157 Goal=   None    Shift=    0.000
 RMSDP=3.32D-08 MaxDP=3.02D-06 DE=-5.73D-11 OVMax= 1.92D-06

 Cycle  15  Pass 1  IDiag  1:
 RMSU=  1.58D-08    CP:  4.97D-01  6.99D-01  8.64D-01  5.85D-01  8.65D-01
                    CP:  7.57D-01  1.06D+00  9.39D-01  1.07D+00  1.10D+00
                    CP:  8.63D-01  1.24D+00  9.09D-01  1.06D+00
 E= -1242.62428626610     Delta-E=       -0.000000000091 Rises=F Damp=F
 DIIS: error= 4.93D-08 at cycle  15 NSaved=  15.
 NSaved=15 IEnMin=15 EnMin= -1242.62428626610     IErMin=15 ErrMin= 4.93D-08
 ErrMax= 4.93D-08  0.00D+00 EMaxC= 1.00D-01 BMatC= 1.76D-12 BMatP= 4.88D-12
 IDIUse=1 WtCom= 1.00D+00 WtEn= 0.00D+00
 Coeff-Com:  0.972D-06-0.285D-05-0.744D-05-0.983D-05 0.835D-05 0.996D-04
 Coeff-Com:  0.456D-03 0.864D-03-0.270D-03-0.335D-02-0.164D-01-0.522D-01
 Coeff-Com:  0.198D-01 0.442D+00 0.609D+00
 Coeff:      0.972D-06-0.285D-05-0.744D-05-0.983D-05 0.835D-05 0.996D-04
 Coeff:      0.456D-03 0.864D-03-0.270D-03-0.335D-02-0.164D-01-0.522D-01
 Coeff:      0.198D-01 0.442D+00 0.609D+00
 Gap=     0.157 Goal=   None    Shift=    0.000
 RMSDP=1.59D-08 MaxDP=2.31D-06 DE=-9.14D-11 OVMax= 6.97D-07

 Cycle  16  Pass 1  IDiag  1:
 RMSU=  1.04D-08    CP:  4.97D-01  6.99D-01  8.64D-01  5.85D-01  8.65D-01
                    CP:  7.57D-01  1.06D+00  9.39D-01  1.07D+00  1.10D+00
                    CP:  8.64D-01  1.25D+00  9.12D-01  1.16D+00  1.03D+00
 E= -1242.62428626625     Delta-E=       -0.000000000143 Rises=F Damp=F
 DIIS: error= 2.75D-08 at cycle  16 NSaved=  16.
 NSaved=16 IEnMin=16 EnMin= -1242.62428626625     IErMin=16 ErrMin= 2.75D-08
 ErrMax= 2.75D-08  0.00D+00 EMaxC= 1.00D-01 BMatC= 1.41D-13 BMatP= 1.76D-12
 IDIUse=1 WtCom= 1.00D+00 WtEn= 0.00D+00
 Coeff-Com:  0.177D-06-0.339D-06-0.175D-05-0.246D-05-0.125D-04-0.288D-04
 Coeff-Com: -0.166D-04 0.114D-03 0.783D-03 0.128D-02-0.301D-02-0.285D-01
 Coeff-Com: -0.294D-01 0.495D-01 0.246D+00 0.764D+00
 Coeff:      0.177D-06-0.339D-06-0.175D-05-0.246D-05-0.125D-04-0.288D-04
 Coeff:     -0.166D-04 0.114D-03 0.783D-03 0.128D-02-0.301D-02-0.285D-01
 Coeff:     -0.294D-01 0.495D-01 0.246D+00 0.764D+00
 Gap=     0.157 Goal=   None    Shift=    0.000
 RMSDP=5.98D-09 MaxDP=5.57D-07 DE=-1.43D-10 OVMax= 3.09D-07

 SCF Done:  E(RMN15) =  -1242.62428627     A.U. after   16 cycles
            NFock= 16  Conv=0.60D-08     -V/T= 2.0044
 KE= 1.237211321468D+03 PE=-7.963208250874D+03 EE= 2.944697247294D+03
 Leave Link  502 at Wed Dec  6 11:00:39 2023, MaxMem=  2147483648 cpu:           82260.4 elap:            3289.8
 (Enter /opt/gaussian/g16-c01/g16/l601.exe)
 Copying SCF densities to generalized density rwf, IOpCl= 0 IROHF=0.

 **********************************************************************

            Population analysis using the SCF Density.

 **********************************************************************

 Orbital symmetries:
       Occupied  (A) (A) (A) (A) (A) (A) (A) (A) (A) (A) (A) (A)
                 (A) (A) (A) (A) (A) (A) (A) (A) (A) (A) (A) (A)
                 (A) (A) (A) (A) (A) (A) (A) (A) (A) (A) (A) (A)
                 (A) (A) (A) (A) (A) (A) (A) (A) (A) (A) (A) (A)
                 (A) (A) (A) (A) (A) (A) (A) (A) (A) (A) (A) (A)
                 (A) (A) (A) (A) (A) (A) (A) (A) (A) (A) (A) (A)
                 (A) (A) (A) (A) (A) (A) (A) (A) (A) (A) (A) (A)
                 (A) (A) (A) (A) (A) (A) (A) (A) (A) (A) (A) (A)
                 (A) (A) (A) (A) (A) (A) (A) (A) (A)
       Virtual   (A) (A) (A) (A) (A) (A) (A) (A) (A) (A) (A) (A)
                 (A) (A) (A) (A) (A) (A) (A) (A) (A) (A) (A) (A)
                 (A) (A) (A) (A) (A) (A) (A) (A) (A) (A) (A) (A)
                 (A) (A) (A) (A) (A) (A) (A) (A) (A) (A) (A) (A)
                 (A) (A) (A) (A) (A) (A) (A) (A) (A) (A) (A) (A)
                 (A) (A) (A) (A) (A) (A) (A) (A) (A) (A) (A) (A)
                 (A) (A) (A) (A) (A) (A) (A) (A) (A) (A) (A) (A)
                 (A) (A) (A) (A) (A) (A) (A) (A) (A) (A) (A) (A)
                 (A) (A) (A) (A) (A) (A) (A) (A) (A) (A) (A) (A)
                 (A) (A) (A) (A) (A) (A) (A) (A) (A) (A) (A) (A)
                 (A) (A) (A) (A) (A) (A) (A) (A) (A) (A) (A) (A)
                 (A) (A) (A) (A) (A) (A) (A) (A) (A) (A) (A) (A)
                 (A) (A) (A) (A) (A) (A) (A) (A) (A) (A) (A) (A)
                 (A) (A) (A) (A) (A) (A) (A) (A) (A) (A) (A) (A)
                 (A) (A) (A) (A) (A) (A) (A) (A) (A) (A) (A) (A)
                 (A) (A) (A) (A) (A) (A) (A) (A) (A) (A) (A) (A)
                 (A) (A) (A) (A) (A) (A) (A) (A) (A) (A) (A) (A)
                 (A) (A) (A) (A) (A) (A) (A) (A) (A) (A) (A) (A)
                 (A) (A) (A) (A) (A) (A) (A) (A) (A) (A) (A) (A)
                 (A) (A) (A) (A) (A) (A) (A) (A) (A) (A) (A) (A)
                 (A) (A) (A) (A) (A) (A) (A) (A) (A) (A) (A) (A)
                 (A) (A) (A) (A) (A) (A) (A) (A) (A) (A) (A) (A)
                 (A) (A) (A) (A) (A) (A) (A) (A) (A) (A) (A) (A)
                 (A) (A) (A) (A) (A) (A) (A) (A) (A) (A) (A) (A)
                 (A) (A) (A) (A) (A) (A) (A) (A) (A) (A) (A) (A)
                 (A) (A) (A) (A) (A) (A) (A) (A) (A) (A) (A) (A)
                 (A) (A) (A) (A) (A) (A) (A) (A) (A) (A) (A) (A)
                 (A) (A) (A) (A) (A) (A) (A) (A) (A) (A) (A) (A)
                 (A) (A) (A) (A) (A) (A) (A) (A) (A) (A) (A) (A)
                 (A) (A) (A) (A) (A) (A) (A) (A) (A) (A) (A) (A)
                 (A) (A) (A) (A) (A) (A) (A) (A) (A) (A) (A) (A)
                 (A) (A) (A) (A) (A) (A) (A) (A) (A) (A) (A) (A)
                 (A) (A) (A) (A) (A) (A) (A) (A) (A) (A) (A) (A)
                 (A) (A) (A) (A) (A) (A) (A) (A) (A) (A) (A) (A)
                 (A) (A) (A) (A) (A) (A) (A) (A) (A) (A) (A) (A)
                 (A) (A) (A) (A) (A) (A) (A) (A) (A) (A) (A) (A)
                 (A) (A) (A) (A) (A) (A) (A) (A) (A) (A) (A) (A)
                 (A) (A) (A) (A) (A) (A) (A) (A) (A) (A) (A) (A)
                 (A) (A) (A) (A) (A) (A) (A) (A) (A) (A) (A) (A)
                 (A) (A) (A) (A) (A) (A) (A) (A) (A) (A) (A) (A)
                 (A) (A) (A) (A) (A) (A) (A) (A) (A) (A) (A) (A)
                 (A) (A) (A) (A) (A) (A) (A) (A) (A) (A) (A) (A)
                 (A) (A) (A) (A) (A) (A) (A) (A) (A) (A) (A) (A)
                 (A) (A) (A) (A) (A) (A) (A) (A) (A) (A) (A) (A)
                 (A) (A) (A) (A) (A) (A) (A) (A) (A) (A) (A) (A)
                 (A) (A) (A) (A) (A) (A) (A) (A) (A) (A) (A) (A)
                 (A) (A) (A) (A) (A) (A) (A) (A) (A) (A) (A) (A)
                 (A) (A) (A) (A) (A) (A) (A) (A) (A) (A) (A) (A)
                 (A) (A) (A) (A) (A) (A) (A) (A) (A) (A) (A) (A)
                 (A) (A) (A) (A) (A) (A) (A) (A) (A) (A) (A) (A)
                 (A) (A) (A) (A) (A) (A) (A) (A) (A) (A) (A) (A)
                 (A) (A) (A) (A) (A) (A) (A) (A) (A) (A) (A) (A)
                 (A) (A) (A) (A) (A) (A) (A) (A) (A) (A) (A) (A)
                 (A) (A) (A) (A) (A) (A) (A) (A) (A) (A) (A) (A)
                 (A) (A) (A) (A) (A) (A) (A) (A) (A) (A) (A) (A)
                 (A) (A) (A) (A) (A) (A) (A) (A) (A) (A) (A) (A)
                 (A) (A) (A) (A) (A) (A) (A) (A) (A) (A) (A) (A)
                 (A) (A) (A) (A) (A) (A) (A) (A) (A) (A) (A) (A)
                 (A) (A) (A) (A) (A) (A) (A) (A) (A) (A) (A) (A)
                 (A) (A) (A) (A) (A)
 The electronic state is 1-A.
 Alpha  occ. eigenvalues --  -14.12872 -14.09282 -14.08588 -10.11166 -10.10680
 Alpha  occ. eigenvalues --  -10.09987 -10.09708 -10.09704 -10.08703 -10.06825
 Alpha  occ. eigenvalues --  -10.06737 -10.06099 -10.05999 -10.05977 -10.05850
 Alpha  occ. eigenvalues --  -10.05553 -10.05458 -10.05267 -10.05244 -10.05242
 Alpha  occ. eigenvalues --  -10.05044 -10.05043 -10.05040 -10.05038 -10.05009
 Alpha  occ. eigenvalues --  -10.04913 -10.04909 -10.04901 -10.04894 -10.04466
 Alpha  occ. eigenvalues --  -10.04464  -1.03491  -1.00747  -0.94291  -0.91818
 Alpha  occ. eigenvalues --   -0.91186  -0.91013  -0.89347  -0.85191  -0.83024
 Alpha  occ. eigenvalues --   -0.80850  -0.80239  -0.79851  -0.79685  -0.79373
 Alpha  occ. eigenvalues --   -0.78886  -0.75903  -0.71850  -0.69605  -0.68595
 Alpha  occ. eigenvalues --   -0.67622  -0.66196  -0.65776  -0.64983  -0.64527
 Alpha  occ. eigenvalues --   -0.62392  -0.61236  -0.59928  -0.58584  -0.58365
 Alpha  occ. eigenvalues --   -0.57259  -0.55528  -0.54705  -0.52770  -0.52733
 Alpha  occ. eigenvalues --   -0.51846  -0.50974  -0.50211  -0.49952  -0.49233
 Alpha  occ. eigenvalues --   -0.49068  -0.48960  -0.48378  -0.47908  -0.47389
 Alpha  occ. eigenvalues --   -0.47085  -0.46843  -0.46702  -0.46532  -0.43692
 Alpha  occ. eigenvalues --   -0.43252  -0.42450  -0.42260  -0.42210  -0.41512
 Alpha  occ. eigenvalues --   -0.41325  -0.40701  -0.40132  -0.39743  -0.39382
 Alpha  occ. eigenvalues --   -0.38926  -0.38696  -0.38602  -0.36111  -0.34591
 Alpha  occ. eigenvalues --   -0.33032  -0.31549  -0.30480  -0.30337  -0.29902
 Alpha  occ. eigenvalues --   -0.29451  -0.29263  -0.28896  -0.26485  -0.22683
 Alpha virt. eigenvalues --   -0.06986  -0.01865  -0.01318  -0.01105  -0.00559
 Alpha virt. eigenvalues --    0.01015   0.01155   0.01442   0.02736   0.03190
 Alpha virt. eigenvalues --    0.03736   0.03832   0.04160   0.04584   0.05038
 Alpha virt. eigenvalues --    0.05177   0.05492   0.05693   0.06013   0.06203
 Alpha virt. eigenvalues --    0.06602   0.06943   0.07193   0.07337   0.07796
 Alpha virt. eigenvalues --    0.08057   0.08311   0.08465   0.08712   0.09713
 Alpha virt. eigenvalues --    0.09843   0.10341   0.10549   0.11269   0.11804
 Alpha virt. eigenvalues --    0.12020   0.12161   0.12222   0.12512   0.12566
 Alpha virt. eigenvalues --    0.12886   0.12996   0.13323   0.13410   0.13515
 Alpha virt. eigenvalues --    0.13687   0.13726   0.14036   0.14207   0.14542
 Alpha virt. eigenvalues --    0.14791   0.15020   0.15218   0.15260   0.15352
 Alpha virt. eigenvalues --    0.15574   0.15656   0.15789   0.15887   0.16005
 Alpha virt. eigenvalues --    0.16150   0.16333   0.16391   0.16754   0.16942
 Alpha virt. eigenvalues --    0.17171   0.17440   0.17550   0.17735   0.17759
 Alpha virt. eigenvalues --    0.18017   0.18096   0.18257   0.18476   0.18666
 Alpha virt. eigenvalues --    0.18974   0.19084   0.19235   0.19481   0.19561
 Alpha virt. eigenvalues --    0.19978   0.20025   0.20325   0.20659   0.20975
 Alpha virt. eigenvalues --    0.21250   0.21532   0.21765   0.22199   0.22311
 Alpha virt. eigenvalues --    0.22636   0.22862   0.22988   0.23178   0.23308
 Alpha virt. eigenvalues --    0.23409   0.23727   0.23843   0.24463   0.24619
 Alpha virt. eigenvalues --    0.24707   0.25003   0.25101   0.25163   0.25301
 Alpha virt. eigenvalues --    0.25555   0.25674   0.25874   0.26345   0.26405
 Alpha virt. eigenvalues --    0.26537   0.26684   0.27074   0.27632   0.27728
 Alpha virt. eigenvalues --    0.27804   0.28199   0.28303   0.28537   0.28720
 Alpha virt. eigenvalues --    0.28885   0.29327   0.29463   0.29579   0.29680
 Alpha virt. eigenvalues --    0.29859   0.30039   0.30087   0.30430   0.30648
 Alpha virt. eigenvalues --    0.30737   0.30802   0.31135   0.31332   0.31646
 Alpha virt. eigenvalues --    0.31733   0.31971   0.32151   0.32342   0.32777
 Alpha virt. eigenvalues --    0.32874   0.33117   0.33271   0.33440   0.33856
 Alpha virt. eigenvalues --    0.34056   0.34289   0.34393   0.34751   0.34774
 Alpha virt. eigenvalues --    0.35080   0.35333   0.35426   0.35542   0.35688
 Alpha virt. eigenvalues --    0.35815   0.36246   0.36465   0.37017   0.37139
 Alpha virt. eigenvalues --    0.37294   0.37493   0.37732   0.38160   0.38345
 Alpha virt. eigenvalues --    0.38652   0.38793   0.39485   0.39838   0.40118
 Alpha virt. eigenvalues --    0.40173   0.40587   0.40645   0.40997   0.41140
 Alpha virt. eigenvalues --    0.41548   0.41741   0.41986   0.42268   0.42444
 Alpha virt. eigenvalues --    0.42750   0.43180   0.43633   0.44058   0.44218
 Alpha virt. eigenvalues --    0.44463   0.45156   0.46068   0.46161   0.47005
 Alpha virt. eigenvalues --    0.47878   0.48458   0.49533   0.50686   0.51700
 Alpha virt. eigenvalues --    0.51799   0.53365   0.54471   0.55052   0.55892
 Alpha virt. eigenvalues --    0.56291   0.56381   0.56806   0.57111   0.57722
 Alpha virt. eigenvalues --    0.57859   0.58396   0.58533   0.58814   0.59160
 Alpha virt. eigenvalues --    0.59410   0.59683   0.59812   0.60386   0.60479
 Alpha virt. eigenvalues --    0.60842   0.61128   0.61416   0.61875   0.62055
 Alpha virt. eigenvalues --    0.62245   0.62455   0.62683   0.63142   0.64127
 Alpha virt. eigenvalues --    0.64228   0.64677   0.65094   0.65174   0.65409
 Alpha virt. eigenvalues --    0.65641   0.66016   0.66341   0.66866   0.66913
 Alpha virt. eigenvalues --    0.67432   0.67702   0.68300   0.68879   0.69203
 Alpha virt. eigenvalues --    0.69329   0.69796   0.69923   0.70321   0.70478
 Alpha virt. eigenvalues --    0.70921   0.71866   0.72113   0.73128   0.73232
 Alpha virt. eigenvalues --    0.73507   0.74066   0.74735   0.74913   0.74999
 Alpha virt. eigenvalues --    0.75641   0.75795   0.76180   0.76411   0.76767
 Alpha virt. eigenvalues --    0.77145   0.77311   0.77445   0.78128   0.78611
 Alpha virt. eigenvalues --    0.78796   0.79375   0.79816   0.80022   0.80313
 Alpha virt. eigenvalues --    0.80670   0.81392   0.81974   0.82062   0.82829
 Alpha virt. eigenvalues --    0.82935   0.83069   0.83588   0.83900   0.84627
 Alpha virt. eigenvalues --    0.85166   0.85451   0.86949   0.87927   0.88089
 Alpha virt. eigenvalues --    0.88320   0.88667   0.89033   0.89197   0.89250
 Alpha virt. eigenvalues --    0.90235   0.90678   0.91193   0.91581   0.92194
 Alpha virt. eigenvalues --    0.92323   0.92618   0.92916   0.93117   0.93272
 Alpha virt. eigenvalues --    0.93435   0.93547   0.93849   0.94470   0.94613
 Alpha virt. eigenvalues --    0.95915   0.96229   0.96430   0.96719   0.96909
 Alpha virt. eigenvalues --    0.97451   0.97672   0.98087   0.98627   0.98954
 Alpha virt. eigenvalues --    0.99499   0.99755   0.99981   1.00623   1.00976
 Alpha virt. eigenvalues --    1.01568   1.01954   1.02535   1.02844   1.02918
 Alpha virt. eigenvalues --    1.03790   1.04758   1.05038   1.05133   1.05474
 Alpha virt. eigenvalues --    1.05898   1.06452   1.06979   1.07281   1.07589
 Alpha virt. eigenvalues --    1.08041   1.08530   1.08856   1.09433   1.09792
 Alpha virt. eigenvalues --    1.10296   1.10666   1.11029   1.11554   1.11962
 Alpha virt. eigenvalues --    1.12650   1.13042   1.13459   1.14034   1.14580
 Alpha virt. eigenvalues --    1.15051   1.15469   1.16191   1.16792   1.17771
 Alpha virt. eigenvalues --    1.18401   1.18602   1.19309   1.20021   1.22238
 Alpha virt. eigenvalues --    1.22683   1.23919   1.26466   1.26649   1.27984
 Alpha virt. eigenvalues --    1.29187   1.33118   1.34320   1.36169   1.36588
 Alpha virt. eigenvalues --    1.37114   1.38030   1.38440   1.38602   1.41919
 Alpha virt. eigenvalues --    1.44251   1.46524   1.47015   1.47601   1.48927
 Alpha virt. eigenvalues --    1.49609   1.50608   1.51249   1.51924   1.52003
 Alpha virt. eigenvalues --    1.52623   1.52902   1.53366   1.53637   1.54010
 Alpha virt. eigenvalues --    1.54163   1.54605   1.55378   1.55458   1.55672
 Alpha virt. eigenvalues --    1.56374   1.56920   1.57150   1.57641   1.58048
 Alpha virt. eigenvalues --    1.58094   1.58518   1.58862   1.59096   1.59501
 Alpha virt. eigenvalues --    1.59607   1.60656   1.62043   1.62607   1.64190
 Alpha virt. eigenvalues --    1.65236   1.65466   1.66309   1.66445   1.66808
 Alpha virt. eigenvalues --    1.67267   1.68098   1.68369   1.68877   1.69211
 Alpha virt. eigenvalues --    1.69577   1.69816   1.70358   1.71008   1.71893
 Alpha virt. eigenvalues --    1.72525   1.73072   1.73883   1.74837   1.75602
 Alpha virt. eigenvalues --    1.75758   1.76013   1.78158   1.78710   1.79017
 Alpha virt. eigenvalues --    1.79106   1.79518   1.80313   1.81193   1.82424
 Alpha virt. eigenvalues --    1.83034   1.83184   1.83767   1.84601   1.85221
 Alpha virt. eigenvalues --    1.85785   1.87546   1.87861   1.87900   1.88212
 Alpha virt. eigenvalues --    1.89229   1.89337   1.89827   1.90214   1.90470
 Alpha virt. eigenvalues --    1.90773   1.91302   1.92341   1.92691   1.93447
 Alpha virt. eigenvalues --    1.93606   1.94166   1.94544   1.95089   1.95453
 Alpha virt. eigenvalues --    1.96601   1.96778   1.96928   1.97188   1.97390
 Alpha virt. eigenvalues --    1.97711   1.98648   1.99061   1.99440   2.00234
 Alpha virt. eigenvalues --    2.01016   2.01302   2.01420   2.02121   2.03393
 Alpha virt. eigenvalues --    2.04455   2.05398   2.05568   2.06054   2.06263
 Alpha virt. eigenvalues --    2.06640   2.07223   2.07358   2.08528   2.09458
 Alpha virt. eigenvalues --    2.10943   2.11430   2.12382   2.15495   2.17291
 Alpha virt. eigenvalues --    2.18321   2.20418   2.20787   2.21093   2.24178
 Alpha virt. eigenvalues --    2.24406   2.25882   2.26974   2.27319   2.28454
 Alpha virt. eigenvalues --    2.28617   2.29191   2.29647   2.30301   2.30641
 Alpha virt. eigenvalues --    2.31884   2.33346   2.34410   2.35255   2.38256
 Alpha virt. eigenvalues --    2.38512   2.40402   2.40485   2.43036   2.43511
 Alpha virt. eigenvalues --    2.43780   2.43971   2.44158   2.44333   2.44423
 Alpha virt. eigenvalues --    2.45655   2.46382   2.47917   2.48919   2.50355
 Alpha virt. eigenvalues --    2.52526   2.53092   2.55692   2.57911   2.59020
 Alpha virt. eigenvalues --    2.59803   2.60175   2.60434   2.60967   2.61507
 Alpha virt. eigenvalues --    2.62365   2.64449   2.65604   2.66400   2.66906
 Alpha virt. eigenvalues --    2.67603   2.68484   2.68726   2.69084   2.69484
 Alpha virt. eigenvalues --    2.69834   2.69885   2.70129   2.70574   2.70795
 Alpha virt. eigenvalues --    2.71227   2.71861   2.72320   2.72403   2.72685
 Alpha virt. eigenvalues --    2.73096   2.73391   2.73616   2.73795   2.74135
 Alpha virt. eigenvalues --    2.74669   2.76049   2.76308   2.76545   2.77295
 Alpha virt. eigenvalues --    2.77999   2.78762   2.79145   2.80501   2.80936
 Alpha virt. eigenvalues --    2.81421   2.81983   2.82651   2.83154   2.83362
 Alpha virt. eigenvalues --    2.83801   2.84416   2.85114   2.85438   2.85783
 Alpha virt. eigenvalues --    2.86588   2.87539   2.87942   2.88508   2.88872
 Alpha virt. eigenvalues --    2.89669   2.90329   2.90772   2.91293   2.91856
 Alpha virt. eigenvalues --    2.93063   2.93359   2.94383   2.94683   2.95740
 Alpha virt. eigenvalues --    2.96980   2.98242   2.98821   3.00639   3.01389
 Alpha virt. eigenvalues --    3.02211   3.04748   3.05476   3.07265   3.08293
 Alpha virt. eigenvalues --    3.09733   3.10580   3.15593   3.16100   3.17798
 Alpha virt. eigenvalues --    3.20848   3.22290   3.25339   3.30269   3.30939
 Alpha virt. eigenvalues --    3.32335   3.32761   3.32802   3.33580   3.34180
 Alpha virt. eigenvalues --    3.35048   3.35381   3.37087   3.40462   3.41151
 Alpha virt. eigenvalues --    3.44040   3.45559   3.45950   3.46592   3.46773
 Alpha virt. eigenvalues --    3.47930   3.48859   3.50396   3.50590   3.51086
 Alpha virt. eigenvalues --    3.51804   3.54147   3.56901   3.58122   3.62111
 Alpha virt. eigenvalues --    3.67212   3.70262   3.80165   3.80454   3.81701
 Alpha virt. eigenvalues --    3.86098   3.88438   3.89855   3.91288   3.91651
 Alpha virt. eigenvalues --    3.92065   3.93391   3.95216   3.97245   3.98226
 Alpha virt. eigenvalues --    4.01164   4.01881   4.05236   4.06534   4.06855
 Alpha virt. eigenvalues --    4.08211   4.08633   4.08839   4.10865   4.10985
 Alpha virt. eigenvalues --    4.26369   4.38054   4.44492   4.51122   4.70973
 Alpha virt. eigenvalues --    4.71544   4.72187   4.72408   4.89115   4.93818
 Alpha virt. eigenvalues --    4.96215   5.20769  22.48060  22.51543  22.58157
 Alpha virt. eigenvalues --   22.59261  22.71529  22.76823  22.83066  22.83379
 Alpha virt. eigenvalues --   22.85020  22.85324  22.85575  22.85762  22.86560
 Alpha virt. eigenvalues --   22.87035  22.89098  22.92173  22.93242  22.94066
 Alpha virt. eigenvalues --   22.94179  22.95860  22.96781  22.96875  22.97044
 Alpha virt. eigenvalues --   23.03264  23.05539  23.05680  23.05806  23.09744
 Alpha virt. eigenvalues --   33.91312  33.93098  33.97802
          Condensed to atoms (all electrons):
 Mulliken charges:
               1
     1  C    0.032877
     2  C   -0.743344
     3  C    0.220885
     4  N    0.045350
     5  C    0.160429
     6  N   -0.029301
     7  C   -0.784740
     8  C   -0.527488
     9  C   -0.108952
    10  C   -0.594535
    11  C   -0.613815
    12  C    1.348536
    13  C    1.219340
    14  C   -0.677927
    15  C   -0.067130
    16  C   -0.198989
    17  N    0.483275
    18  C   -0.066574
    19  C    0.027020
    20  C   -0.391395
    21  C   -0.120192
    22  C   -0.431232
    23  C    0.237337
    24  C   -0.056395
    25  C    0.041065
    26  C   -0.379545
    27  C   -0.133492
    28  C   -0.411861
    29  C    0.209875
    30  C   -0.063334
    31  C   -0.340732
    32  H    0.191164
    33  H   -0.026771
    34  H    0.182631
    35  H    0.168044
    36  H    0.134848
    37  H    0.149012
    38  H    0.055481
    39  H    0.143893
    40  H    0.123867
    41  H    0.120128
    42  H    0.147668
    43  H    0.126642
    44  H    0.143429
    45  H    0.122294
    46  H    0.116024
    47  H    0.147959
    48  H    0.126544
    49  H    0.144025
    50  H    0.123006
    51  H    0.125199
    52  H    0.149899
 Sum of Mulliken charges =  -0.00000
 Mulliken charges with hydrogens summed into heavy atoms:
               1
     1  C    0.224041
     2  C   -0.770115
     3  C    0.220885
     4  N    0.045350
     5  C    0.343060
     6  N   -0.029301
     7  C   -0.784740
     8  C   -0.359444
     9  C    0.025897
    10  C   -0.445523
    11  C   -0.558334
    12  C    1.348536
    13  C    1.219340
    14  C   -0.534034
    15  C    0.056736
    16  C   -0.198989
    17  N    0.483275
    18  C   -0.066574
    19  C    0.147147
    20  C   -0.243727
    21  C    0.006450
    22  C   -0.287804
    23  C    0.359632
    24  C   -0.056395
    25  C    0.157089
    26  C   -0.231586
    27  C   -0.006948
    28  C   -0.267836
    29  C    0.332881
    30  C    0.061865
    31  C   -0.190832
 Electronic spatial extent (au):  <R**2>=          21883.0811
 Charge=             -0.0000 electrons
 Dipole moment (field-independent basis, Debye):
    X=              2.2706    Y=              0.7267    Z=              2.4236  Tot=              3.3997
 Quadrupole moment (field-independent basis, Debye-Ang):
   XX=           -180.8312   YY=           -174.0641   ZZ=           -174.6138
   XY=             -4.9563   XZ=            -15.4489   YZ=              1.5859
 Traceless Quadrupole moment (field-independent basis, Debye-Ang):
   XX=             -4.3281   YY=              2.4390   ZZ=              1.8892
   XY=             -4.9563   XZ=            -15.4489   YZ=              1.5859
 Octapole moment (field-independent basis, Debye-Ang**2):
[...]
 0000601,0.00000675,-0.00000100,-0.00000420,0.00000186,0.00000023,0.000
 00090,0.00000271,-0.00000121,-0.00000347,-0.00000589,-0.00000024,-0.00
 000142,0.00000082,0.00000169,0.00000551,-0.00001748,-0.00000141,-0.000
 00392,-0.00004124,0.00001042,0.00001293,0.00000495,-0.00001369,-0.0000
 4443,-0.00013811,0.00007864,0.00001890,0.00006799,-0.00005550,-0.00037
 827,-0.00134546,-0.00041780,-0.00006865,-0.00016412,-0.00004399,0.0002
 9100,0.00000717,-0.00001509,-0.00002738,0.00002794,-0.00000792,-0.0000
 2592,0.00000190,0.00006198,-0.00004659,0.00000207,-0.00002051,0.000057
 37,0.00004428,0.00003824,-0.00010913,-0.00374189,0.00462404,0.00073390
 ,0.00012265,0.00034129,-0.00121364,-0.00068647,0.00547693,0.00116868,0
 .01637565,0.00806594,0.00659345,-0.04034318,-0.00924526,-0.05459050,-0
 .01994612,-0.01021807,0.00096688,-0.00002370,-0.00002221,0.00002683,0.
 00001512,-0.00000732,0.00000750,0.00000040,0.00000119,0.00000121,0.000
 00135,0.00000031,0.00000071,-0.00000028,0.00000054,0.00000116,-0.00000
 054,0.00000015,0.00000034,-0.00000095,-0.00000006,-0.00000066,-0.00000
 012,-0.00000017,-0.00000099,0.00000089,0.00000057,0.00000161,-0.000014
 12,-0.00000885,0.00000168,0.00000463,-0.00000348,-0.00000215,0.0000000
 7,-0.00000927,0.00000417,0.00000046,0.00000153,-0.00000760,-0.00000306
 ,-0.00000065,-0.00000656,0.00000126,-0.00001397,-0.00002657,-0.0000234
 6,-0.00001367,0.00003001,0.00020754,-0.00040469,-0.00031492,0.00079009
 ,0.00041016,0.00014374,0.00084637,-0.00234736,-0.00127402,0.04605966,0
 .00586019,0.04937853,-0.00006827,0.00001307,-0.00000328,0.00006948,0.0
 0000411,0.00001551,-0.00007259,0.00000758,0.00002079,0.00002753,-0.000
 00706,-0.00003154,-0.00001683,0.00000448,0.00001681,0.00001562,-0.0000
 0275,-0.00001263,-0.00000801,0.00000245,0.00000783,-0.00000361,-0.0000
 0039,-0.00000240,-0.00000464,0.00000227,0.00000519,0.00000898,0.000000
 78,0.00000206,-0.00000259,-0.00000031,-0.00000870,0.00002598,-0.000001
 72,0.00000620,0.00006470,-0.00001527,-0.00001428,-0.00001638,-0.000040
 12,0.00001006,0.00013754,-0.00002537,0.00008392,-0.00050586,0.00022602
 ,0.00003075,0.00153033,0.00174263,0.00188668,-0.00026256,-0.00003453,-
 0.00074171,-0.00001255,0.00018320,-0.00009140,0.00007582,0.00000247,-0
 .00017995,-0.00009779,0.00011918,-0.00001060,-0.00011756,-0.00010432,0
 .00017416,0.00019841,-0.00038983,-0.00044032,-0.00186384,-0.02210706,0
 .01689416,-0.00381969,-0.00311018,-0.00283993,-0.00106678,0.00033384,-
 0.00047067,-0.00074820,-0.00019963,-0.00470126,0.00937898,0.01570259,-
 0.01132888,-0.07591395,-0.06667338,0.03853541,0.00006229,0.00003639,-0
 .00015082,-0.00002833,0.00001525,-0.00000157,0.00000024,-0.00000419,-0
 .00000131,-0.00000219,-0.00000368,-0.00000127,0.00000080,-0.00000116,-
 0.00000233,0.00000097,-0.00000052,-0.00000041,0.00000130,-0.00000010,0
 .00000117,-0.00000029,-0.00000036,0.00000113,-0.00000085,-0.00000188,-
 0.00000189,0.00000561,0.00000371,0.00000273,-0.00001069,0.00000946,-0.
 00002578,-0.00007136,-0.00000456,-0.00001284,0.00000277,-0.00000751,0.
 00000950,0.00000217,0.00001389,0.00002770,-0.00001974,0.00001099,0.000
 03900,0.00001723,0.00011984,0.00000820,-0.00025871,-0.00108062,0.00084
 074,-0.00006496,0.00019759,0.00028200,0.00030358,0.00067794,-0.0006086
 2,0.00000204,0.00091556,0.00186259,0.07309001,-0.00001925,-0.00001291,
 -0.00000252,0.00000666,0.00000539,0.00000341,-0.00000321,0.00000436,0.
 00000427,-0.00000023,0.00000009,-0.00000827,0.00000176,0.00000088,0.00
 000380,-0.00000185,-0.00000083,-0.00000493,0.00000081,-0.00000226,0.00
 000446,-0.00000018,-0.00000008,-0.00000182,-0.00000056,0.00000044,-0.0
 0000031,0.00000033,-0.00000040,0.00000053,-0.00000173,0.00000099,0.000
 00035,-0.00000054,0.00000301,-0.00000085,0.00002385,-0.00003072,-0.000
 02375,-0.00004502,0.00003926,-0.00001688,0.00008565,0.00003560,0.00004
 369,0.00000109,-0.00002982,0.00007801,0.00123331,-0.00129826,-0.001922
 80,-0.00053766,-0.00019032,0.00062832,0.00003441,0.00043732,-0.0005376
 7,-0.00026943,0.00002101,0.00038227,0.00016065,-0.00038037,0.00000987,
 0.00027689,0.00036535,-0.00045863,0.00029571,0.00018177,0.00044219,-0.
 00197371,-0.00616836,0.00890480,-0.00352267,0.00237655,0.00129456,0.00
 022432,0.00000138,-0.00085747,0.00007283,0.00364376,0.00349516,-0.0043
 8085,-0.00365323,0.00427982,-0.06642970,-0.22227785,0.13440417,0.00005
 271,0.00003236,0.00006593,0.00001112,0.00002123,-0.00003712,0.00000256
 ,-0.00000176,-0.00000091,-0.00000039,-0.00000160,-0.00000055,0.0000005
 9,-0.00000048,-0.00000064,0.00000014,0.,0.00000014,-0.00000033,-0.0000
 0027,0.00000003,-0.00000048,-0.00000038,-0.00000062,0.00000060,-0.0000
 0064,0.00000080,-0.00000456,-0.00000297,-0.00000075,-0.00000861,-0.000
 03970,-0.00002107,0.00001570,-0.00005312,-0.00001656,0.00001027,-0.000
 01130,0.00001686,-0.00000431,-0.00002843,0.00000993,-0.00000912,-0.000
 00082,-0.00001570,-0.00015992,-0.00029947,0.00003944,-0.00008387,-0.00
 030652,0.00041705,0.00021231,-0.00039805,-0.00033247,-0.00026423,-0.00
 021818,0.00022583,0.00146140,-0.00133464,-0.00209821,0.07354405,0.2296
 2901,-0.00005505,-0.00000436,-0.00000353,0.00004064,-0.00000333,0.0000
 1411,-0.00003669,0.00000577,0.00001555,0.00001166,-0.00000805,-0.00002
 155,-0.00000592,0.00000318,0.00001053,0.00000519,-0.00000332,-0.000009
 86,-0.00000264,0.00000154,0.00000644,-0.00000171,-0.00000099,-0.000002
 36,-0.00000276,0.00000086,0.00000233,0.00000412,-0.00000077,0.00000190
 ,-0.00000225,-0.00000083,-0.00000348,0.00001149,0.00000322,0.00000275,
 0.00005638,-0.00000670,-0.00003201,-0.00005105,0.00005404,0.00001817,0
 .00009637,-0.00003295,0.00002182,0.00002833,0.00007188,0.00033154,0.00
 127251,-0.00189063,-0.00219551,-0.00165518,-0.00072937,-0.00018266,0.0
 0011959,0.00010379,0.00015349,0.00010098,0.00002407,-0.00011822,-0.000
 06099,0.00013393,-0.00005135,0.00005336,-0.00013841,0.00009131,-0.0002
 5932,-0.00023409,-0.00078610,-0.00281387,-0.00249126,0.00458581,-0.002
 15437,0.00132448,0.00301270,-0.00036525,-0.00073145,-0.00053017,-0.004
 75944,0.00322372,0.00093991,0.00737432,0.01613173,-0.00717900,0.040358
 71,0.13555009,-0.13897202,0.00010138,-0.00003774,0.00008590,-0.0000262
 5,-0.00000879,-0.00003931,0.00000302,0.00000097,-0.00000205,-0.0000003
 8,0.00000053,-0.00000216,0.00000110,-0.00000003,-0.00000171,0.00000032
 ,0.00000022,-0.00000022,0.00000034,0.00000026,0.00000043,-0.00000036,0
 .00000024,-0.00000031,0.00000023,-0.00000011,-0.00000045,0.00000289,0.
 00000192,-0.00000283,-0.00000066,-0.00002370,0.00000353,0.00005502,-0.
 00002894,0.00002910,-0.00000120,-0.00002065,-0.00000087,0.00000035,-0.
 00000563,0.00001277,0.00000900,0.00001790,0.00001879,0.00007262,-0.000
 01631,0.00020724,-0.00024605,-0.00011542,0.00023593,0.00026608,-0.0002
 9388,-0.00036772,0.00031004,0.00077996,-0.00039845,0.00124589,-0.00226
 560,-0.00129099,-0.03910642,-0.14836605,0.14245038,-0.00031880,-0.0002
 3163,-0.00116053,-0.00054561,0.00006449,0.00019367,0.00020554,-0.00006
 643,-0.00018734,-0.00009690,0.00003821,0.00013672,0.00004927,-0.000020
 78,-0.00007419,-0.00005038,0.00001542,0.00005105,0.00002193,-0.0000103
 0,-0.00004290,0.00000713,0.00000278,0.00001111,0.00001311,-0.00000528,
 -0.00001747,-0.00002795,0.00000061,-0.00000757,0.00000672,0.00000606,0
 .00002650,-0.00011472,0.00000527,0.00001199,-0.00397197,0.00123224,0.0
 0234079,-0.00031572,0.00024125,0.00082359,-0.00004456,0.00090041,0.002
 17879,0.00944096,0.00223163,0.00788956,0.00031075,0.00000160,-0.001028
 63,-0.00001325,-0.00030476,0.00008268,0.00002284,0.00002501,-0.0000413
 7,-0.00001234,0.00000929,0.00000967,0.00001162,-0.00000217,-0.00001089
 ,0.00001381,-0.00000323,0.00000068,0.00005626,0.00002978,-0.00003822,-
 0.00121830,0.00068054,0.00117204,-0.00103128,0.00141221,0.00005425,0.0
 0043745,0.00009722,0.00044992,-0.00035208,-0.00034051,0.00002732,-0.00
 019818,0.00027100,-0.00039263,0.00039530,-0.00011481,0.00008708,-0.177
 71121,-0.03367228,-0.13886242,-0.01429953,-0.00571070,-0.02333495,-0.0
 0000062,0.00000231,0.00001938,0.00001816,0.00000065,-0.00001581,-0.000
 00810,0.00000289,0.00001081,-0.00000415,0.00000015,0.00000032,-0.00000
 355,-0.00000067,-0.00000273,-0.00000123,-0.00000133,-0.00000387,0.0000
 0161,0.00000230,0.00000911,-0.00000582,-0.00007900,-0.00007866,0.00038
 259,0.00004822,0.00054143,-0.00000239,0.00000267,-0.00001813,0.0000022
 4,0.00000532,-0.00000437,-0.00000130,0.00000063,-0.00000189,0.00000254
 ,0.,-0.00000702,-0.00000432,-0.00000545,-0.00000028,0.00007696,-0.0002
 8538,-0.00016861,0.00003050,-0.00004429,0.00000917,0.00000960,-0.00002
 836,-0.00000891,-0.00000309,0.00001990,0.00001111,0.00003307,-0.000014
 69,-0.00000479,0.18776492,0.00012535,0.00033649,0.00002806,-0.00001318
 ,-0.00018462,0.00000627,0.00004736,-0.00005683,0.00001652,-0.00001875,
 -0.00001316,0.00001849,0.00000804,0.00000385,-0.00001353,-0.00001071,-
 0.00000202,0.00001070,0.00000806,0.00000206,-0.00000525,0.00000192,-0.
 00000290,0.00000160,0.00000282,-0.00000184,-0.00000382,-0.00000691,-0.
 00000599,0.00000040,0.00000239,0.00000209,0.00000376,-0.00001612,0.000
 02820,-0.00001027,0.00094909,0.00687796,-0.00147946,0.00038935,-0.0008
 9844,0.00000373,0.00063892,0.00497550,-0.00236796,-0.00432261,0.002913
 81,-0.00518740,0.00047837,-0.00375652,0.00107039,-0.00020481,0.0000240
 1,-0.00000917,-0.00013369,0.00007569,0.00003405,0.00002154,-0.00002370
 ,0.00002359,0.00001608,-0.00003663,0.00002643,0.00007962,0.00005162,-0
 .00003270,-0.00004830,0.00003081,0.00005246,-0.00004454,-0.00011663,-0
 .00177662,0.00031881,-0.00006708,0.00000031,0.00032803,-0.00008074,0.0
 0048978,-0.00021469,-0.00027860,0.00002366,-0.00015790,0.00024243,-0.0
 0028899,0.00038381,0.00007956,0.00033992,-0.03369198,-0.04665886,-0.04
 268302,0.00198007,0.00384016,0.00176883,0.00000094,-0.00000393,-0.0000
 0169,0.00000179,0.00002862,0.00000090,0.00000026,0.00000265,0.00000102
 ,-0.00000078,0.00000161,0.00000032,-0.00000098,0.00000118,-0.00000086,
 0.00000029,0.00000118,-0.00000132,0.00000122,0.00000408,0.00000151,-0.
 00002874,-0.00074581,0.00021022,-0.00018066,0.00004923,-0.00026408,0.0
 0002796,-0.00004971,-0.00000018,0.00000023,-0.00000319,0.00001133,-0.0
 0000441,-0.00001232,-0.00000836,0.00000336,-0.00000112,-0.00000383,-0.
 00002492,-0.00003985,-0.00001992,-0.00019798,-0.00020890,-0.00030174,0
 .00001000,0.00000795,0.00001922,-0.00002937,-0.00001771,-0.00001788,-0
 .00002337,-0.00000908,-0.00000325,-0.00006215,-0.00005318,0.00002381,0
 .03385936,0.03783937,0.00029195,-0.00003611,0.00028350,-0.00002655,0.0
 0002261,-0.00010142,0.00014983,0.00001089,-0.00001638,-0.00005204,0.00
 001594,0.00004730,0.00002659,-0.00001009,-0.00002832,-0.00003057,0.000
 00980,0.00002479,0.00002101,-0.00000617,-0.00001286,0.00000702,0.00000
 193,0.00000346,0.00000926,-0.00000310,-0.00001002,-0.00001798,0.000002
 42,-0.00000552,0.00000574,0.00000123,0.00001505,-0.00004660,-0.0000101
 6,-0.00001211,0.00189130,-0.00155094,0.00164678,0.00105955,0.00005353,
 -0.00021884,0.00296240,-0.00244208,-0.00374722,-0.02133464,-0.00461191
 ,-0.01532173,-0.00107451,0.00151726,0.00130829,0.00023986,0.00017667,-
 0.00024428,0.00009207,-0.00003988,0.00008018,0.00001853,0.00001337,0.0
 0000928,-0.00001734,-0.00000915,0.00001989,-0.00000782,-0.00002557,-0.
 00000819,-0.00008838,0.00004810,0.00010217,0.00019211,-0.00002527,0.00
 017724,-0.00040347,-0.00001333,0.00030997,0.00016848,0.00005835,0.0001
 2860,-0.00011349,-0.00014606,-0.00003069,-0.00002601,0.00006756,-0.000
 14804,0.00052320,0.00010014,0.00024807,-0.13762526,-0.04443051,-0.2135
 2060,0.00571983,0.00112089,0.00820202,0.00000642,-0.00000084,-0.000006
 64,0.00000289,-0.00000758,0.00000883,-0.00000090,0.00000041,0.00000463
 ,-0.00000158,0.00000006,0.00000128,-0.00000288,-0.00000082,-0.00000200
 ,0.00000045,-0.00000110,-0.00000194,0.00000267,0.00000020,0.00000517,-
 0.00008477,0.00018349,-0.00004312,-0.00103394,-0.00017070,-0.00083427,
 -0.00006294,-0.00003349,-0.00002697,-0.00000739,-0.00001153,-0.0000013
 7,-0.00000206,-0.00000356,0.00000497,-0.00000585,0.00000007,0.00000185
 ,0.00002542,-0.00002579,-0.00000501,0.00003213,-0.00008813,-0.00006313
 ,-0.00000274,0.00002442,-0.00002716,-0.00002281,0.00001388,-0.00000869
 ,-0.00001928,0.00000497,-0.00000119,0.00002914,-0.00002689,-0.00005280
 ,0.14901060,0.04900296,0.22154798,0.00117874,-0.00082252,-0.00202582,0
 .00009774,0.00007499,0.00032084,-0.00018753,0.00004601,0.00000710,0.00
 014300,-0.00002443,-0.00004920,-0.00009365,0.00002357,0.00007460,0.000
 08454,-0.00000607,-0.00001051,-0.00002859,0.00000178,0.00001181,-0.000
 00694,0.00000136,0.00000124,-0.00000762,0.00000422,0.00001468,0.000026
 74,0.00000197,0.00001108,0.00001231,-0.00000436,-0.00002213,0.00008592
 ,-0.00000428,0.00000665,0.00892286,-0.00496506,-0.01755216,-0.00218768
 ,-0.00052372,-0.00330204,-0.00106205,-0.00014539,-0.00042151,-0.004707
 05,0.00044395,-0.00005537,-0.00060310,0.00006139,0.00141180,-0.0002393
 8,0.00035178,-0.00021727,-0.00000657,-0.00003228,0.00004231,0.00001537
 ,-0.00000098,-0.00002440,-0.00001819,0.00001201,0.00001952,-0.00002465
 ,0.00002298,0.00001541,-0.00004984,-0.00008909,0.00011912,0.00030809,-
 0.00021989,0.00037345,0.00002792,0.00001862,-0.00007783,0.00000281,-0.
 00002222,-0.00002608,-0.00002148,0.00002351,-0.00005262,0.00001245,-0.
 00003280,0.00002100,-0.00010909,0.00002434,-0.00005365,-0.00530728,0.0
 0859603,0.02794732,-0.08566062,0.02499526,0.08198197,-0.00045110,0.000
 18621,0.00057011,0.00012636,-0.00001581,0.00004525,0.00000121,-0.00000
 218,-0.00000921,0.00000407,-0.00000065,-0.00000116,0.00000385,0.000000
 78,0.00000370,0.00000230,0.00000164,0.00000636,0.00000022,-0.00000327,
 -0.00000916,0.00030938,-0.00026830,-0.00100684,0.00004964,-0.00003313,
 0.00008424,-0.00000270,0.00001266,-0.00000088,-0.00000181,-0.00000744,
 0.00000758,-0.00000178,-0.00000022,0.00000539,-0.00000744,-0.00000037,
 0.00001634,0.00000378,0.00000278,-0.00000457,0.00000405,-0.00000895,0.
 00004387,-0.00001009,0.00002347,-0.00000230,-0.00000865,0.00000767,0.0
 0000129,-0.00001075,0.00000222,-0.00000330,0.00000337,0.00000739,0.000
 01068,0.00104245,-0.00024751,-0.00037666,0.08834646,0.00020217,-0.0037
 2964,0.00127279,0.00006401,0.00025358,0.00008119,-0.00012251,0.0001879
 2,-0.00003173,0.00004944,-0.00006767,-0.00002253,-0.00003741,0.0000065
 8,0.00002907,0.00003230,-0.00000787,-0.00000993,-0.00001705,0.00000211
 ,0.00000567,-0.00000651,-0.00000211,0.00000064,-0.00000542,-0.00000051
 ,0.00001029,0.00001345,-0.00000368,0.00000644,0.00000565,-0.00000444,-
 0.00001741,0.00003938,-0.00002294,0.00002042,0.00299150,0.00266385,-0.
 00430792,-0.00070076,0.00517216,-0.00205563,0.00000851,-0.00084100,0.0
 0059008,0.00026823,0.00716416,-0.00114669,0.00021129,-0.00016427,-0.00
 049146,0.00005586,-0.00013647,0.00006847,-0.00001272,-0.00002387,-0.00
 002498,-0.00000090,-0.00000329,0.00000497,0.00000959,0.00000934,-0.000
 01057,0.00000649,-0.00001737,0.00001180,0.00006114,0.00004868,-0.00003
 791,0.00002206,0.00004875,-0.00007388,0.00018854,-0.00005652,0.0000568
 4,-0.00009471,0.00001145,-0.00007372,0.00008778,0.00005921,0.00000431,
 0.00001634,-0.00007109,0.00007298,-0.00009277,-0.00004164,-0.00002436,
 0.00028500,0.00356892,-0.00270001,0.02433686,-0.05931005,-0.07415024,-
 0.00028100,0.00019010,0.00003864,0.00004256,0.00012277,0.00000848,0.00
 000003,0.00000366,-0.00000447,0.00000128,0.00000054,-0.00000119,0.0000
 0178,0.00000209,0.00000095,0.00000122,0.00000423,0.00000186,-0.0000009
 8,0.00000711,-0.00000579,0.00014303,0.00018751,-0.00024991,-0.00000224
 ,-0.00064433,0.00012958,-0.00001419,-0.00000046,0.00001348,-0.00000059
 ,0.00000291,-0.00000068,0.00000080,0.00000074,-0.00000362,-0.00000162,
 -0.00000637,-0.00001081,-0.00000283,-0.00000293,0.00000335,-0.00002213
 ,0.00001738,-0.00001923,0.00001243,-0.00002360,0.00001003,0.00000186,0
 .00000176,0.00000379,0.00000144,-0.00000259,0.00000444,-0.00001067,-0.
 00000283,0.00000126,-0.00026736,-0.00409075,0.00127964,-0.02746766,0.0
 4954078,0.00256545,0.00112309,0.00027377,-0.00060614,0.00007312,0.0003
 7417,0.00008986,-0.00010832,-0.00016065,0.00002319,0.00004887,0.000114
 54,-0.00002787,0.00000341,0.00000974,0.00002517,0.00001214,0.00004243,
 -0.00001109,-0.00001065,-0.00003664,0.00000225,0.00000584,0.00001709,0
 .00000925,-0.00000081,-0.00000629,-0.00000844,0.00000042,0.00000158,0.
 00002615,0.00000320,0.00000537,-0.00002646,0.00000540,-0.00000510,0.00
 953392,-0.00598254,-0.01638369,-0.00391723,-0.00198419,-0.00156480,-0.
 00066437,0.00042385,0.00034215,-0.00002594,-0.00131604,0.00239979,0.00
 028050,-0.00004301,-0.00016582,-0.00003857,-0.00006989,0.00021066,0.00
 000005,0.00002771,-0.00003033,0.00000124,-0.00000580,0.00001433,0.0000
 0432,0.00000612,-0.00001663,0.00000222,-0.00000473,0.00001355,0.000024
 05,0.00001883,-0.00004848,-0.00013191,0.00006372,-0.00019316,0.0000021
 0,-0.00002279,0.00003915,-0.00001100,0.00001636,-0.00000447,0.00001567
 ,-0.00000677,0.00002385,-0.00000910,0.00000807,-0.00000822,0.00004294,
 -0.00001804,0.00002389,-0.00082510,-0.00135471,-0.00070673,0.08153067,
 -0.07383721,-0.29085994,-0.00112665,0.00008003,0.00039416,0.00015343,0
 .00000484,0.00014945,-0.00000552,0.00000007,0.00000307,-0.00000016,-0.
 00000031,-0.00000068,0.00000052,-0.00000030,0.00000071,0.00000244,0.,0
 .00000396,0.00000179,-0.00000272,-0.00000168,0.00052787,-0.00033135,-0
 .00092330,0.00007208,0.00015946,-0.00009549,-0.00000336,-0.00001978,-0
 .00000211,-0.00000170,0.00000290,-0.00000719,0.00000118,-0.00000046,-0
 .00000513,0.00000420,-0.00000064,-0.00000490,-0.00000498,-0.00000070,-
 0.00000020,0.00000487,0.00001228,-0.00001553,0.00000392,-0.00000888,0.
 00000249,0.00000447,-0.00000191,0.00000271,0.00000763,0.00000075,0.000
 00321,-0.00000262,-0.00000224,-0.00000473,0.00035484,0.00129105,0.0003
 1922,-0.08787006,0.08174325,0.30646685\\0.00000204,-0.00000347,0.00000
 225,0.00000052,-0.00000071,-0.00000172,-0.00000196,-0.00000210,-0.0000
 0381,0.00000078,0.00000041,0.00000359,0.00000242,-0.00000358,0.0000037
 5,-0.00000488,-0.00000247,-0.00000630,0.00001086,0.00000079,0.00000369
 ,-0.00000245,0.,-0.00000430,-0.00000521,0.00000347,0.00000310,0.000007
 32,0.00000251,-0.00000094,-0.00000140,0.00000050,-0.00000628,-0.000006
 49,0.00000160,0.00000441,0.00000053,-0.00000038,-0.00000117,-0.0000022
 5,0.00000029,-0.00000065,0.00000216,0.00000226,0.00000025,-0.00000251,
 -0.00000127,0.00000003,0.00000039,-0.00000172,-0.00000055,-0.00000029,
 0.00000328,0.00000141,0.00000030,0.00000012,0.00000213,0.00000101,0.00
 000329,0.00000085,-0.00000083,0.00000445,0.00000262,0.00000055,0.00000
 149,0.00000103,0.00000051,0.00000193,-0.00000255,0.00000123,-0.0000003
 9,0.00000013,0.00000116,-0.00000379,0.00000095,-0.00000158,-0.00000353
 ,-0.00000272,0.00000003,-0.00000203,-0.00000229,0.00000028,-0.00000288
 ,0.00000081,-0.00000103,-0.00000234,0.00000007,-0.00000106,-0.00000093
 ,0.00000037,-0.00000096,-0.00000206,0.00000225,-0.00000019,-0.00000073
 ,0.00000030,0.00000095,0.00000195,-0.00000022,-0.00000010,-0.00000297,
 -0.00000006,0.00000014,0.00000079,0.00000111,0.00000111,0.00000259,-0.
 00000252,-0.00000195,0.00000385,-0.00000133,0.00000090,0.00000242,0.00
 000071,-0.00000076,0.00000196,-0.00000027,0.00000023,0.00000141,-0.000
 00083,-0.00000019,0.00000164,0.00000253,0.00000048,0.00000367,0.000002
 93,0.00000054,0.00000487,0.00000142,0.00000028,0.00000350,-0.00000058,
 -0.00000017,0.00000080,-0.00000099,-0.00000020,-0.00000196,-0.00000237
 ,-0.00000008,-0.00000385,-0.00000258,-0.00000031,-0.00000455,-0.000001
 15,-0.00000012,-0.00000293,0.00000074,0.00000025,-0.00000062,0.0000017
 2,0.00000025,-0.00000179,0.00000038,-0.00000028,-0.00000278,0.00000066
 \\\@
 The archive entry for this job was punched.



 WE LOSE BECAUSE WE WIN

 GAMBLERS,

 RECOLLECTING WHICH,

 TOSS THEIR DICE AGAIN....


                          EMILY DICKINSON  BOLTS OF MELODY NO. 533
 Job cpu time:       2 days  0 hours 27 minutes 20.0 seconds.
 Elapsed time:       0 days  1 hours 53 minutes 26.3 seconds.
 File lengths (MBytes):  RWF=   2789 Int=      0 D2E=      0 Chk=     56 Scr=      1
 Normal termination of Gaussian 16 at Wed Dec  6 20:19:02 2023.
