 Entering Gaussian System, Link 0=g16
 Input=/home/exlonk/in_progress/4032.inp
 Output=/home/exlonk/in_progress/4032.log
 Initial command:
 /opt/gaussian/g16-c01/g16/l1.exe "/lustre/tmp/slurm/2182655/Gau-1178094.inp" -scrdir="/lustre/tmp/slurm/2182655/"
 Default CPUs for threads: 0-4,7-8,12-14,18-20,24-28,31-32,36-38,42-44
 Default is to use a total of  26 processors:
                               26 via shared-memory
                                1 via Linda
 Entering Link 1 = /opt/gaussian/g16-c01/g16/l1.exe PID=   1178095.
  
 Copyright (c) 1988-2019, Gaussian, Inc.  All Rights Reserved.
  
 This is part of the Gaussian(R) 16 program.  It is based on
 the Gaussian(R) 09 system (copyright 2009, Gaussian, Inc.),
 the Gaussian(R) 03 system (copyright 2003, Gaussian, Inc.),
 the Gaussian(R) 98 system (copyright 1998, Gaussian, Inc.),
 the Gaussian(R) 94 system (copyright 1995, Gaussian, Inc.),
 the Gaussian 92(TM) system (copyright 1992, Gaussian, Inc.),
 the Gaussian 90(TM) system (copyright 1990, Gaussian, Inc.),
 the Gaussian 88(TM) system (copyright 1988, Gaussian, Inc.),
 the Gaussian 86(TM) system (copyright 1986, Carnegie Mellon
 University), and the Gaussian 82(TM) system (copyright 1983,
 Carnegie Mellon University). Gaussian is a federally registered
 trademark of Gaussian, Inc.
  
 This software contains proprietary and confidential information,
 including trade secrets, belonging to Gaussian, Inc.
  
 This software is provided under written license and may be
 used, copied, transmitted, or stored only in accord with that
 written license.
  
 The following legend is applicable only to US Government
 contracts under FAR:
  
                    RESTRICTED RIGHTS LEGEND
  
 Use, reproduction and disclosure by the US Government is
 subject to restrictions as set forth in subparagraphs (a)
 and (c) of the Commercial Computer Software - Restricted
 Rights clause in FAR 52.227-19.
  
 Gaussian, Inc.
 340 Quinnipiac St., Bldg. 40, Wallingford CT 06492
  
  
 ---------------------------------------------------------------
 Warning -- This program may not be used in any manner that
 competes with the business of Gaussian, Inc. or will provide
 assistance to any competitor of Gaussian, Inc.  The licensee
 of this program is prohibited from giving any competitor of
 Gaussian, Inc. access to this program.  By using this program,
 the user acknowledges that Gaussian, Inc. is engaged in the
 business of creating and licensing software in the field of
 computational chemistry and represents and warrants to the
 licensee that it is not a competitor of Gaussian, Inc. and that
 it will not use this program in any manner prohibited above.
 ---------------------------------------------------------------
  

 Cite this work as:
 Gaussian 16, Revision C.01,
 M. J. Frisch, G. W. Trucks, H. B. Schlegel, G. E. Scuseria, 
 M. A. Robb, J. R. Cheeseman, G. Scalmani, V. Barone, 
 G. A. Petersson, H. Nakatsuji, X. Li, M. Caricato, A. V. Marenich, 
 J. Bloino, B. G. Janesko, R. Gomperts, B. Mennucci, H. P. Hratchian, 
 J. V. Ortiz, A. F. Izmaylov, J. L. Sonnenberg, D. Williams-Young, 
 F. Ding, F. Lipparini, F. Egidi, J. Goings, B. Peng, A. Petrone, 
 T. Henderson, D. Ranasinghe, V. G. Zakrzewski, J. Gao, N. Rega, 
 G. Zheng, W. Liang, M. Hada, M. Ehara, K. Toyota, R. Fukuda, 
 J. Hasegawa, M. Ishida, T. Nakajima, Y. Honda, O. Kitao, H. Nakai, 
 T. Vreven, K. Throssell, J. A. Montgomery, Jr., J. E. Peralta, 
 F. Ogliaro, M. J. Bearpark, J. J. Heyd, E. N. Brothers, K. N. Kudin, 
 V. N. Staroverov, T. A. Keith, R. Kobayashi, J. Normand, 
 K. Raghavachari, A. P. Rendell, J. C. Burant, S. S. Iyengar, 
 J. Tomasi, M. Cossi, J. M. Millam, M. Klene, C. Adamo, R. Cammi, 
 J. W. Ochterski, R. L. Martin, K. Morokuma, O. Farkas, 
 J. B. Foresman, and D. J. Fox, Gaussian, Inc., Wallingford CT, 2019.
 
 ******************************************
 Gaussian 16:  EM64L-G16RevC.01  3-Jul-2019
                 4-Dec-2023 
 ******************************************
 %nproc=26
 Will use up to   26 processors via shared memory.
 %mem=16GB
 %chk=/home/exlonk/in_progress/4032.chk
 ------------------------------
 #p MN15/6-311++G(d,p) opt freq
 ------------------------------
 1/18=20,19=15,26=3,38=1/1,3;
 2/9=110,12=2,17=6,18=5,40=1/2;
 3/5=4,6=6,7=1111,11=2,25=1,30=1,71=1,74=-73/1,2,3;
 4//1;
 5/5=2,38=5/2;
 6/7=2,8=2,9=2,10=2,28=1/1;
 7//1,2,3,16;
 1/18=20,19=15,26=3/3(2);
 2/9=110/2;
 99//99;
 2/9=110/2;
 3/5=4,6=6,7=1111,11=2,25=1,30=1,71=1,74=-73/1,2,3;
 4/5=5,16=3,69=1/1;
 5/5=2,38=5/2;
 7//1,2,3,16;
 1/18=20,19=15,26=3/3(-5);
 2/9=110/2;
 6/7=2,8=2,9=2,10=2,19=2,28=1/1;
 99/9=1/99;
 Leave Link    1 at Mon Dec  4 23:34:01 2023, MaxMem=  2147483648 cpu:              28.3 elap:               1.2
 (Enter /opt/gaussian/g16-c01/g16/l101.exe)
 ---------------
 name file: 4032
 ---------------
 Symbolic Z-matrix:
 Charge =  0 Multiplicity = 1
 C                    -5.61617   1.64226   3.67208 
 C                    -4.88265   1.15591   2.46911 
 C                    -5.2187   -0.0547    1.90896 
 C                    -4.5399   -0.52776   0.77841 
 C                    -4.91116  -1.84927   0.21555 
 C                    -3.52143   0.19242   0.18918 
 C                    -2.83717  -0.27623  -1.02174 
 C                    -1.53767  -0.51531  -1.06373 
 C                    -0.51133  -0.40157  -0.03597 
 C                     0.63265  -0.75298  -0.59582 
 C                     1.91733  -0.76591   0.13733 
 C                     3.04993  -1.12135  -0.44534 
 C                     4.32496  -1.14059   0.26016 
 O                     4.38244  -0.81322   1.47022 
 O                     5.47943  -1.51399  -0.37851 
 C                     6.74711  -1.56721   0.19986 
 C                     7.20275  -0.22776   0.71693 
 C                     8.31617  -0.16082   1.55312 
 C                     8.7521    1.05286   2.0334 
 C                     8.09354   2.21233   1.6932 
 C                     6.99437   2.1345    0.86618 
 C                     6.56125   0.93176   0.38934 
 C                     0.4205   -1.10827  -1.99028 
 N                    -0.84404  -0.95781  -2.21999 
 B                    -1.59133  -1.19203  -3.50891 
 F                    -1.34398  -2.54693  -3.98126 
 F                    -1.00815  -0.29935  -4.52056 
 N                    -3.06569  -0.88092  -3.39976 
 C                    -4.00103  -0.96247  -4.38125 
 C                    -5.17015  -0.58646  -3.80376 
 C                    -4.94983  -0.28205  -2.49607 
 C                    -3.60628  -0.47274  -2.24809 
 C                    -3.20904   1.40053   0.77309 
 C                    -2.15112   2.24549   0.18173 
 C                    -3.86949   1.89042   1.89747 
 H                    -4.99221   1.42463   4.57404 
 H                    -6.57416   1.10973   3.81232 
 H                    -5.85986   2.72431   3.60198 
 H                    -6.01458  -0.63543   2.35413 
 H                    -4.14103  -2.17968  -0.49849 
 H                    -5.91242  -1.76003  -0.23035 
 H                    -4.89382  -2.61607   1.03239 
 H                    -0.67183  -0.08856   0.99662 
 H                     1.97642  -0.48602   1.17273 
 H                     3.03493  -1.40981  -1.48551 
 H                     6.81777  -2.33726   1.01492 
 H                     7.51594  -1.86202  -0.54439 
 H                     8.82364  -1.07604   1.81251 
 H                     9.60985   1.08355   2.67503 
 H                     8.40064   3.18539   2.04654 
 H                     6.4625    3.02409   0.5854 
 H                     5.68831   0.83915  -0.27498 
 H                     1.20568  -1.42867  -2.65674 
 H                    -3.85041  -1.2645   -5.41323 
 H                    -6.12222  -0.54729  -4.34022 
 H                    -5.7287    0.05504  -1.79162 
 H                    -2.47589   3.33003   0.17508 
 H                    -1.27456   2.22177   0.85925 
 H                    -1.89082   1.97398  -0.83933 
 H                    -3.6214    2.83896   2.35389 
 
 ITRead=  0  0  0  0  0  0  0  0  0  0  0  0  0  0  0  0  0  0  0  0
 ITRead=  0  0  0  0  0  0  0  0  0  0  0  0  0  0  0  0  0  0  0  0
 ITRead=  0  0  0  0  0  0  0  0  0  0  0  0  0  0  0  0  0  0  0  0
 MicOpt= -1 -1 -1 -1 -1 -1 -1 -1 -1 -1 -1 -1 -1 -1 -1 -1 -1 -1 -1 -1
 MicOpt= -1 -1 -1 -1 -1 -1 -1 -1 -1 -1 -1 -1 -1 -1 -1 -1 -1 -1 -1 -1
 MicOpt= -1 -1 -1 -1 -1 -1 -1 -1 -1 -1 -1 -1 -1 -1 -1 -1 -1 -1 -1 -1
 NAtoms=     60 NQM=       60 NQMF=       0 NMMI=      0 NMMIF=      0
                NMic=       0 NMicF=      0.
                    Isotopes and Nuclear Properties:
 (Nuclear quadrupole moments (NQMom) in fm**2, nuclear magnetic moments (NMagM)
  in nuclear magnetons)

  Atom         1           2           3           4           5           6           7           8           9          10
 IAtWgt=          12          12          12          12          12          12          12          12          12          12
 AtmWgt=  12.0000000  12.0000000  12.0000000  12.0000000  12.0000000  12.0000000  12.0000000  12.0000000  12.0000000  12.0000000
 NucSpn=           0           0           0           0           0           0           0           0           0           0
 AtZEff=  -0.0000000  -0.0000000  -0.0000000  -0.0000000  -0.0000000  -0.0000000  -0.0000000  -0.0000000  -0.0000000  -0.0000000
 NQMom=    0.0000000   0.0000000   0.0000000   0.0000000   0.0000000   0.0000000   0.0000000   0.0000000   0.0000000   0.0000000
 NMagM=    0.0000000   0.0000000   0.0000000   0.0000000   0.0000000   0.0000000   0.0000000   0.0000000   0.0000000   0.0000000
 AtZNuc=   6.0000000   6.0000000   6.0000000   6.0000000   6.0000000   6.0000000   6.0000000   6.0000000   6.0000000   6.0000000

  Atom        11          12          13          14          15          16          17          18          19          20
 IAtWgt=          12          12          12          16          16          12          12          12          12          12
 AtmWgt=  12.0000000  12.0000000  12.0000000  15.9949146  15.9949146  12.0000000  12.0000000  12.0000000  12.0000000  12.0000000
 NucSpn=           0           0           0           0           0           0           0           0           0           0
 AtZEff=  -0.0000000  -0.0000000  -0.0000000  -0.0000000  -0.0000000  -0.0000000  -0.0000000  -0.0000000  -0.0000000  -0.0000000
 NQMom=    0.0000000   0.0000000   0.0000000   0.0000000   0.0000000   0.0000000   0.0000000   0.0000000   0.0000000   0.0000000
 NMagM=    0.0000000   0.0000000   0.0000000   0.0000000   0.0000000   0.0000000   0.0000000   0.0000000   0.0000000   0.0000000
 AtZNuc=   6.0000000   6.0000000   6.0000000   8.0000000   8.0000000   6.0000000   6.0000000   6.0000000   6.0000000   6.0000000

  Atom        21          22          23          24          25          26          27          28          29          30
 IAtWgt=          12          12          12          14          11          19          19          14          12          12
 AtmWgt=  12.0000000  12.0000000  12.0000000  14.0030740  11.0093053  18.9984033  18.9984033  14.0030740  12.0000000  12.0000000
 NucSpn=           0           0           0           2           3           1           1           2           0           0
 AtZEff=  -0.0000000  -0.0000000  -0.0000000  -0.0000000  -0.0000000  -0.0000000  -0.0000000  -0.0000000  -0.0000000  -0.0000000
 NQMom=    0.0000000   0.0000000   0.0000000   2.0440000   4.0590000   0.0000000   0.0000000   2.0440000   0.0000000   0.0000000
 NMagM=    0.0000000   0.0000000   0.0000000   0.4037610   2.6886370   2.6288670   2.6288670   0.4037610   0.0000000   0.0000000
 AtZNuc=   6.0000000   6.0000000   6.0000000   7.0000000   5.0000000   9.0000000   9.0000000   7.0000000   6.0000000   6.0000000

  Atom        31          32          33          34          35          36          37          38          39          40
 IAtWgt=          12          12          12          12          12           1           1           1           1           1
 AtmWgt=  12.0000000  12.0000000  12.0000000  12.0000000  12.0000000   1.0078250   1.0078250   1.0078250   1.0078250   1.0078250
 NucSpn=           0           0           0           0           0           1           1           1           1           1
 AtZEff=  -0.0000000  -0.0000000  -0.0000000  -0.0000000  -0.0000000  -0.0000000  -0.0000000  -0.0000000  -0.0000000  -0.0000000
 NQMom=    0.0000000   0.0000000   0.0000000   0.0000000   0.0000000   0.0000000   0.0000000   0.0000000   0.0000000   0.0000000
 NMagM=    0.0000000   0.0000000   0.0000000   0.0000000   0.0000000   2.7928460   2.7928460   2.7928460   2.7928460   2.7928460
 AtZNuc=   6.0000000   6.0000000   6.0000000   6.0000000   6.0000000   1.0000000   1.0000000   1.0000000   1.0000000   1.0000000

  Atom        41          42          43          44          45          46          47          48          49          50
 IAtWgt=           1           1           1           1           1           1           1           1           1           1
 AtmWgt=   1.0078250   1.0078250   1.0078250   1.0078250   1.0078250   1.0078250   1.0078250   1.0078250   1.0078250   1.0078250
 NucSpn=           1           1           1           1           1           1           1           1           1           1
 AtZEff=  -0.0000000  -0.0000000  -0.0000000  -0.0000000  -0.0000000  -0.0000000  -0.0000000  -0.0000000  -0.0000000  -0.0000000
 NQMom=    0.0000000   0.0000000   0.0000000   0.0000000   0.0000000   0.0000000   0.0000000   0.0000000   0.0000000   0.0000000
 NMagM=    2.7928460   2.7928460   2.7928460   2.7928460   2.7928460   2.7928460   2.7928460   2.7928460   2.7928460   2.7928460
 AtZNuc=   1.0000000   1.0000000   1.0000000   1.0000000   1.0000000   1.0000000   1.0000000   1.0000000   1.0000000   1.0000000

  Atom        51          52          53          54          55          56          57          58          59          60
 IAtWgt=           1           1           1           1           1           1           1           1           1           1
 AtmWgt=   1.0078250   1.0078250   1.0078250   1.0078250   1.0078250   1.0078250   1.0078250   1.0078250   1.0078250   1.0078250
 NucSpn=           1           1           1           1           1           1           1           1           1           1
 AtZEff=  -0.0000000  -0.0000000  -0.0000000  -0.0000000  -0.0000000  -0.0000000  -0.0000000  -0.0000000  -0.0000000  -0.0000000
 NQMom=    0.0000000   0.0000000   0.0000000   0.0000000   0.0000000   0.0000000   0.0000000   0.0000000   0.0000000   0.0000000
 NMagM=    2.7928460   2.7928460   2.7928460   2.7928460   2.7928460   2.7928460   2.7928460   2.7928460   2.7928460   2.7928460
 AtZNuc=   1.0000000   1.0000000   1.0000000   1.0000000   1.0000000   1.0000000   1.0000000   1.0000000   1.0000000   1.0000000
 Leave Link  101 at Mon Dec  4 23:34:02 2023, MaxMem=  2147483648 cpu:               8.8 elap:               0.4
 (Enter /opt/gaussian/g16-c01/g16/l103.exe)

 GradGradGradGradGradGradGradGradGradGradGradGradGradGradGradGradGradGrad
 Berny optimization.
 Initialization pass.
                           ----------------------------
                           !    Initial Parameters    !
                           ! (Angstroms and Degrees)  !
 --------------------------                            --------------------------
 ! Name  Definition              Value          Derivative Info.                !
 --------------------------------------------------------------------------------
 ! R1    R(1,2)                  1.4905         estimate D2E/DX2                !
 ! R2    R(1,36)                 1.1181         estimate D2E/DX2                !
 ! R3    R(1,37)                 1.105          estimate D2E/DX2                !
 ! R4    R(1,38)                 1.1114         estimate D2E/DX2                !
 ! R5    R(2,3)                  1.3756         estimate D2E/DX2                !
 ! R6    R(2,35)                 1.3758         estimate D2E/DX2                !
 ! R7    R(3,4)                  1.401          estimate D2E/DX2                !
 ! R8    R(3,39)                 1.0811         estimate D2E/DX2                !
 ! R9    R(4,5)                  1.4836         estimate D2E/DX2                !
 ! R10   R(4,6)                  1.3795         estimate D2E/DX2                !
 ! R11   R(5,40)                 1.101          estimate D2E/DX2                !
 ! R12   R(5,41)                 1.0997         estimate D2E/DX2                !
 ! R13   R(5,42)                 1.1205         estimate D2E/DX2                !
 ! R14   R(6,7)                  1.4677         estimate D2E/DX2                !
 ! R15   R(6,33)                 1.3777         estimate D2E/DX2                !
 ! R16   R(7,8)                  1.322          estimate D2E/DX2                !
 ! R17   R(7,32)                 1.4608         estimate D2E/DX2                !
 ! R18   R(8,9)                  1.4569         estimate D2E/DX2                !
 ! R19   R(8,24)                 1.4191         estimate D2E/DX2                !
 ! R20   R(9,10)                 1.3212         estimate D2E/DX2                !
 ! R21   R(9,43)                 1.0909         estimate D2E/DX2                !
 ! R22   R(10,11)                1.4792         estimate D2E/DX2                !
 ! R23   R(10,23)                1.4546         estimate D2E/DX2                !
 ! R24   R(11,12)                1.3224         estimate D2E/DX2                !
 ! R25   R(11,44)                1.0742         estimate D2E/DX2                !
 ! R26   R(12,13)                1.4573         estimate D2E/DX2                !
 ! R27   R(12,45)                1.0795         estimate D2E/DX2                !
 ! R28   R(13,14)                1.2549         estimate D2E/DX2                !
 ! R29   R(13,15)                1.3712         estimate D2E/DX2                !
 ! R30   R(15,16)                1.3944         estimate D2E/DX2                !
 ! R31   R(16,17)                1.5064         estimate D2E/DX2                !
 ! R32   R(16,46)                1.1235         estimate D2E/DX2                !
 ! R33   R(16,47)                1.1099         estimate D2E/DX2                !
 ! R34   R(17,18)                1.3941         estimate D2E/DX2                !
 ! R35   R(17,22)                1.365          estimate D2E/DX2                !
 ! R36   R(18,19)                1.3761         estimate D2E/DX2                !
 ! R37   R(18,48)                1.0782         estimate D2E/DX2                !
 ! R38   R(19,20)                1.3762         estimate D2E/DX2                !
 ! R39   R(19,49)                1.0716         estimate D2E/DX2                !
 ! R40   R(20,21)                1.3778         estimate D2E/DX2                !
 ! R41   R(20,50)                1.0798         estimate D2E/DX2                !
 ! R42   R(21,22)                1.3644         estimate D2E/DX2                !
 ! R43   R(21,51)                1.0738         estimate D2E/DX2                !
 ! R44   R(22,52)                1.1009         estimate D2E/DX2                !
 ! R45   R(23,24)                1.294          estimate D2E/DX2                !
 ! R46   R(23,53)                1.0786         estimate D2E/DX2                !
 ! R47   R(24,25)                1.5082         estimate D2E/DX2                !
 ! R48   R(25,26)                1.456          estimate D2E/DX2                !
 ! R49   R(25,27)                1.4698         estimate D2E/DX2                !
 ! R50   R(25,28)                1.5108         estimate D2E/DX2                !
 ! R51   R(28,29)                1.3583         estimate D2E/DX2                !
 ! R52   R(28,32)                1.3361         estimate D2E/DX2                !
 ! R53   R(29,30)                1.3571         estimate D2E/DX2                !
 ! R54   R(29,54)                1.0858         estimate D2E/DX2                !
 ! R55   R(30,31)                1.3606         estimate D2E/DX2                !
 ! R56   R(30,55)                1.0935         estimate D2E/DX2                !
 ! R57   R(31,32)                1.3795         estimate D2E/DX2                !
 ! R58   R(31,56)                1.103          estimate D2E/DX2                !
 ! R59   R(33,34)                1.4774         estimate D2E/DX2                !
 ! R60   R(33,35)                1.393          estimate D2E/DX2                !
 ! R61   R(34,57)                1.1321         estimate D2E/DX2                !
 ! R62   R(34,58)                1.1081         estimate D2E/DX2                !
 ! R63   R(34,59)                1.0881         estimate D2E/DX2                !
 ! R64   R(35,60)                1.0815         estimate D2E/DX2                !
 ! A1    A(2,1,36)             108.2347         estimate D2E/DX2                !
 ! A2    A(2,1,37)             111.8279         estimate D2E/DX2                !
 ! A3    A(2,1,38)             112.0052         estimate D2E/DX2                !
 ! A4    A(36,1,37)            106.7153         estimate D2E/DX2                !
 ! A5    A(36,1,38)            111.2692         estimate D2E/DX2                !
 ! A6    A(37,1,38)            106.6857         estimate D2E/DX2                !
 ! A7    A(1,2,3)              119.7085         estimate D2E/DX2                !
 ! A8    A(1,2,35)             121.57           estimate D2E/DX2                !
 ! A9    A(3,2,35)             118.7216         estimate D2E/DX2                !
 ! A10   A(2,3,4)              120.4921         estimate D2E/DX2                !
 ! A11   A(2,3,39)             119.0049         estimate D2E/DX2                !
 ! A12   A(4,3,39)             120.503          estimate D2E/DX2                !
 ! A13   A(3,4,5)              119.0581         estimate D2E/DX2                !
 ! A14   A(3,4,6)              121.7425         estimate D2E/DX2                !
 ! A15   A(5,4,6)              119.1904         estimate D2E/DX2                !
 ! A16   A(4,5,40)             109.7755         estimate D2E/DX2                !
 ! A17   A(4,5,41)             108.0232         estimate D2E/DX2                !
 ! A18   A(4,5,42)             109.216          estimate D2E/DX2                !
 ! A19   A(40,5,41)            113.4702         estimate D2E/DX2                !
 ! A20   A(40,5,42)            104.8675         estimate D2E/DX2                !
 ! A21   A(41,5,42)            111.4212         estimate D2E/DX2                !
 ! A22   A(4,6,7)              121.9978         estimate D2E/DX2                !
 ! A23   A(4,6,33)             116.3691         estimate D2E/DX2                !
 ! A24   A(7,6,33)             121.5987         estimate D2E/DX2                !
 ! A25   A(6,7,8)              122.8356         estimate D2E/DX2                !
 ! A26   A(6,7,32)             119.3479         estimate D2E/DX2                !
 ! A27   A(8,7,32)             117.8098         estimate D2E/DX2                !
 ! A28   A(7,8,9)              130.9924         estimate D2E/DX2                !
 ! A29   A(7,8,24)             124.2453         estimate D2E/DX2                !
 ! A30   A(9,8,24)             104.7614         estimate D2E/DX2                !
 ! A31   A(8,9,10)             106.8745         estimate D2E/DX2                !
 ! A32   A(8,9,43)             125.9097         estimate D2E/DX2                !
 ! A33   A(10,9,43)            127.2153         estimate D2E/DX2                !
 ! A34   A(9,10,11)            122.9761         estimate D2E/DX2                !
 ! A35   A(9,10,23)            110.1763         estimate D2E/DX2                !
 ! A36   A(11,10,23)           126.8477         estimate D2E/DX2                !
 ! A37   A(10,11,12)           121.8584         estimate D2E/DX2                !
 ! A38   A(10,11,44)           121.5496         estimate D2E/DX2                !
 ! A39   A(12,11,44)           116.592          estimate D2E/DX2                !
 ! A40   A(11,12,13)           122.6568         estimate D2E/DX2                !
 ! A41   A(11,12,45)           118.9784         estimate D2E/DX2                !
 ! A42   A(13,12,45)           118.3649         estimate D2E/DX2                !
 ! A43   A(12,13,14)           120.2281         estimate D2E/DX2                !
 ! A44   A(12,13,15)           120.9804         estimate D2E/DX2                !
 ! A45   A(14,13,15)           118.7915         estimate D2E/DX2                !
 ! A46   A(13,15,16)           125.6363         estimate D2E/DX2                !
 ! A47   A(15,16,17)           112.5459         estimate D2E/DX2                !
 ! A48   A(15,16,46)           112.5969         estimate D2E/DX2                !
 ! A49   A(15,16,47)           111.2079         estimate D2E/DX2                !
 ! A50   A(17,16,46)           109.9625         estimate D2E/DX2                !
 ! A51   A(17,16,47)           104.8819         estimate D2E/DX2                !
 ! A52   A(46,16,47)           105.1196         estimate D2E/DX2                !
 ! A53   A(16,17,18)           119.3524         estimate D2E/DX2                !
 ! A54   A(16,17,22)           122.0593         estimate D2E/DX2                !
 ! A55   A(18,17,22)           118.5879         estimate D2E/DX2                !
 ! A56   A(17,18,19)           120.3114         estimate D2E/DX2                !
 ! A57   A(17,18,48)           118.6508         estimate D2E/DX2                !
 ! A58   A(19,18,48)           121.0378         estimate D2E/DX2                !
 ! A59   A(18,19,20)           120.3458         estimate D2E/DX2                !
 ! A60   A(18,19,49)           119.1948         estimate D2E/DX2                !
 ! A61   A(20,19,49)           120.4594         estimate D2E/DX2                !
 ! A62   A(19,20,21)           118.854          estimate D2E/DX2                !
 ! A63   A(19,20,50)           122.8374         estimate D2E/DX2                !
 ! A64   A(21,20,50)           118.3086         estimate D2E/DX2                !
 ! A65   A(20,21,22)           120.8535         estimate D2E/DX2                !
 ! A66   A(20,21,51)           120.3518         estimate D2E/DX2                !
 ! A67   A(22,21,51)           118.7947         estimate D2E/DX2                !
 ! A68   A(17,22,21)           121.0473         estimate D2E/DX2                !
 ! A69   A(17,22,52)           116.4882         estimate D2E/DX2                !
 ! A70   A(21,22,52)           122.4643         estimate D2E/DX2                !
 ! A71   A(10,23,24)           106.5177         estimate D2E/DX2                !
 ! A72   A(10,23,53)           123.97           estimate D2E/DX2                !
 ! A73   A(24,23,53)           129.5123         estimate D2E/DX2                !
 ! A74   A(8,24,23)            111.6701         estimate D2E/DX2                !
 ! A75   A(8,24,25)            120.1703         estimate D2E/DX2                !
 ! A76   A(23,24,25)           128.1596         estimate D2E/DX2                !
 ! A77   A(24,25,26)           109.7299         estimate D2E/DX2                !
 ! A78   A(24,25,27)           107.2957         estimate D2E/DX2                !
 ! A79   A(24,25,28)           112.9431         estimate D2E/DX2                !
 ! A80   A(26,25,27)           105.9304         estimate D2E/DX2                !
 ! A81   A(26,25,28)           112.386          estimate D2E/DX2                !
 ! A82   A(27,25,28)           108.1713         estimate D2E/DX2                !
 ! A83   A(25,28,29)           127.4066         estimate D2E/DX2                !
 ! A84   A(25,28,32)           121.3344         estimate D2E/DX2                !
 ! A85   A(29,28,32)           111.259          estimate D2E/DX2                !
 ! A86   A(28,29,30)           105.6118         estimate D2E/DX2                !
 ! A87   A(28,29,54)           127.444          estimate D2E/DX2                !
 ! A88   A(30,29,54)           126.9442         estimate D2E/DX2                !
 ! A89   A(29,30,31)           109.3583         estimate D2E/DX2                !
 ! A90   A(29,30,55)           123.451          estimate D2E/DX2                !
 ! A91   A(31,30,55)           127.1907         estimate D2E/DX2                !
 ! A92   A(30,31,32)           107.4308         estimate D2E/DX2                !
 ! A93   A(30,31,56)           124.6023         estimate D2E/DX2                !
 ! A94   A(32,31,56)           127.9669         estimate D2E/DX2                !
 ! A95   A(7,32,28)            123.4822         estimate D2E/DX2                !
 ! A96   A(7,32,31)            130.1714         estimate D2E/DX2                !
 ! A97   A(28,32,31)           106.3401         estimate D2E/DX2                !
 ! A98   A(6,33,34)            119.6184         estimate D2E/DX2                !
 ! A99   A(6,33,35)            122.887          estimate D2E/DX2                !
 ! A100  A(34,33,35)           117.4805         estimate D2E/DX2                !
 ! A101  A(33,34,57)           110.1696         estimate D2E/DX2                !
 ! A102  A(33,34,58)           108.0263         estimate D2E/DX2                !
 ! A103  A(33,34,59)           113.8395         estimate D2E/DX2                !
 ! A104  A(57,34,58)           104.5376         estimate D2E/DX2                !
 ! A105  A(57,34,59)           107.5858         estimate D2E/DX2                !
 ! A106  A(58,34,59)           112.2809         estimate D2E/DX2                !
 ! A107  A(2,35,33)            119.7876         estimate D2E/DX2                !
 ! A108  A(2,35,60)            117.506          estimate D2E/DX2                !
 ! A109  A(33,35,60)           122.7064         estimate D2E/DX2                !
 ! D1    D(36,1,2,3)            99.6606         estimate D2E/DX2                !
 ! D2    D(36,1,2,35)          -80.3478         estimate D2E/DX2                !
 ! D3    D(37,1,2,3)           -17.6084         estimate D2E/DX2                !
 ! D4    D(37,1,2,35)          162.3832         estimate D2E/DX2                !
 ! D5    D(38,1,2,3)          -137.309          estimate D2E/DX2                !
 ! D6    D(38,1,2,35)           42.6826         estimate D2E/DX2                !
 ! D7    D(1,2,3,4)           -179.986          estimate D2E/DX2                !
 ! D8    D(1,2,3,39)             0.0267         estimate D2E/DX2                !
 ! D9    D(35,2,3,4)             0.0222         estimate D2E/DX2                !
 ! D10   D(35,2,3,39)         -179.9651         estimate D2E/DX2                !
 ! D11   D(1,2,35,33)         -179.9732         estimate D2E/DX2                !
 ! D12   D(1,2,35,60)            0.0223         estimate D2E/DX2                !
 ! D13   D(3,2,35,33)            0.0185         estimate D2E/DX2                !
 ! D14   D(3,2,35,60)         -179.986          estimate D2E/DX2                !
 ! D15   D(2,3,4,5)            178.8617         estimate D2E/DX2                !
 ! D16   D(2,3,4,6)             -0.037          estimate D2E/DX2                !
 ! D17   D(39,3,4,5)            -1.1512         estimate D2E/DX2                !
 ! D18   D(39,3,4,6)           179.9502         estimate D2E/DX2                !
 ! D19   D(3,4,5,40)          -166.3396         estimate D2E/DX2                !
 ! D20   D(3,4,5,41)            69.4625         estimate D2E/DX2                !
 ! D21   D(3,4,5,42)           -51.8788         estimate D2E/DX2                !
 ! D22   D(6,4,5,40)            12.5876         estimate D2E/DX2                !
 ! D23   D(6,4,5,41)          -111.6103         estimate D2E/DX2                !
 ! D24   D(6,4,5,42)           127.0484         estimate D2E/DX2                !
 ! D25   D(3,4,6,7)           -177.8887         estimate D2E/DX2                !
 ! D26   D(3,4,6,33)             0.009          estimate D2E/DX2                !
 ! D27   D(5,4,6,7)              3.214          estimate D2E/DX2                !
 ! D28   D(5,4,6,33)          -178.8882         estimate D2E/DX2                !
 ! D29   D(4,6,7,8)           -120.1175         estimate D2E/DX2                !
 ! D30   D(4,6,7,32)            60.852          estimate D2E/DX2                !
 ! D31   D(33,6,7,8)            62.094          estimate D2E/DX2                !
 ! D32   D(33,6,7,32)         -116.9366         estimate D2E/DX2                !
 ! D33   D(4,6,33,34)         -178.5684         estimate D2E/DX2                !
 ! D34   D(4,6,33,35)            0.0332         estimate D2E/DX2                !
 ! D35   D(7,6,33,34)           -0.6616         estimate D2E/DX2                !
 ! D36   D(7,6,33,35)          177.94           estimate D2E/DX2                !
 ! D37   D(6,7,8,9)              0.1636         estimate D2E/DX2                !
 ! D38   D(6,7,8,24)          -179.443          estimate D2E/DX2                !
 ! D39   D(32,7,8,9)           179.2083         estimate D2E/DX2                !
 ! D40   D(32,7,8,24)           -0.3984         estimate D2E/DX2                !
 ! D41   D(6,7,32,28)          179.1929         estimate D2E/DX2                !
 ! D42   D(6,7,32,31)            0.2287         estimate D2E/DX2                !
 ! D43   D(8,7,32,28)            0.1138         estimate D2E/DX2                !
 ! D44   D(8,7,32,31)         -178.8504         estimate D2E/DX2                !
 ! D45   D(7,8,9,10)          -179.6481         estimate D2E/DX2                !
 ! D46   D(7,8,9,43)             0.586          estimate D2E/DX2                !
 ! D47   D(24,8,9,10)            0.0156         estimate D2E/DX2                !
 ! D48   D(24,8,9,43)         -179.7503         estimate D2E/DX2                !
 ! D49   D(7,8,24,23)          179.681          estimate D2E/DX2                !
 ! D50   D(7,8,24,25)           -0.2951         estimate D2E/DX2                !
 ! D51   D(9,8,24,23)           -0.012          estimate D2E/DX2                !
 ! D52   D(9,8,24,25)         -179.9881         estimate D2E/DX2                !
 ! D53   D(8,9,10,11)         -179.9931         estimate D2E/DX2                !
 ! D54   D(8,9,10,23)           -0.0139         estimate D2E/DX2                !
 ! D55   D(43,9,10,11)          -0.2312         estimate D2E/DX2                !
 ! D56   D(43,9,10,23)         179.748          estimate D2E/DX2                !
 ! D57   D(9,10,11,12)        -179.9791         estimate D2E/DX2                !
 ! D58   D(9,10,11,44)           0.0156         estimate D2E/DX2                !
 ! D59   D(23,10,11,12)          0.0453         estimate D2E/DX2                !
 ! D60   D(23,10,11,44)       -179.96           estimate D2E/DX2                !
 ! D61   D(9,10,23,24)           0.0067         estimate D2E/DX2                !
 ! D62   D(9,10,23,53)        -179.9993         estimate D2E/DX2                !
 ! D63   D(11,10,23,24)        179.9849         estimate D2E/DX2                !
 ! D64   D(11,10,23,53)         -0.0211         estimate D2E/DX2                !
 ! D65   D(10,11,12,13)       -179.9906         estimate D2E/DX2                !
 ! D66   D(10,11,12,45)          0.0097         estimate D2E/DX2                !
 ! D67   D(44,11,12,13)          0.0144         estimate D2E/DX2                !
 ! D68   D(44,11,12,45)       -179.9853         estimate D2E/DX2                !
 ! D69   D(11,12,13,14)          0.0703         estimate D2E/DX2                !
 ! D70   D(11,12,13,15)       -179.9338         estimate D2E/DX2                !
 ! D71   D(45,12,13,14)       -179.9301         estimate D2E/DX2                !
 ! D72   D(45,12,13,15)          0.0659         estimate D2E/DX2                !
 ! D73   D(12,13,15,16)        179.9906         estimate D2E/DX2                !
 ! D74   D(14,13,15,16)         -0.0134         estimate D2E/DX2                !
 ! D75   D(13,15,16,17)        -60.401          estimate D2E/DX2                !
 ! D76   D(13,15,16,46)         64.5713         estimate D2E/DX2                !
 ! D77   D(13,15,16,47)       -177.7478         estimate D2E/DX2                !
 ! D78   D(15,16,17,18)        167.2383         estimate D2E/DX2                !
 ! D79   D(15,16,17,22)        -12.9786         estimate D2E/DX2                !
 ! D80   D(46,16,17,18)         40.8373         estimate D2E/DX2                !
 ! D81   D(46,16,17,22)       -139.3797         estimate D2E/DX2                !
 ! D82   D(47,16,17,18)        -71.7237         estimate D2E/DX2                !
 ! D83   D(47,16,17,22)        108.0594         estimate D2E/DX2                !
 ! D84   D(16,17,18,19)        179.7928         estimate D2E/DX2                !
 ! D85   D(16,17,18,48)         -0.2089         estimate D2E/DX2                !
 ! D86   D(22,17,18,19)          0.0022         estimate D2E/DX2                !
 ! D87   D(22,17,18,48)       -179.9995         estimate D2E/DX2                !
 ! D88   D(16,17,22,21)       -179.789          estimate D2E/DX2                !
 ! D89   D(16,17,22,52)          0.0498         estimate D2E/DX2                !
 ! D90   D(18,17,22,21)         -0.0044         estimate D2E/DX2                !
 ! D91   D(18,17,22,52)        179.8345         estimate D2E/DX2                !
 ! D92   D(17,18,19,20)          0.0004         estimate D2E/DX2                !
 ! D93   D(17,18,19,49)        179.9935         estimate D2E/DX2                !
 ! D94   D(48,18,19,20)       -179.9978         estimate D2E/DX2                !
 ! D95   D(48,18,19,49)         -0.0048         estimate D2E/DX2                !
 ! D96   D(18,19,20,21)         -0.0009         estimate D2E/DX2                !
 ! D97   D(18,19,20,50)       -179.99           estimate D2E/DX2                !
 ! D98   D(49,19,20,21)       -179.9939         estimate D2E/DX2                !
 ! D99   D(49,19,20,50)          0.017          estimate D2E/DX2                !
 ! D100  D(19,20,21,22)         -0.0013         estimate D2E/DX2                !
 ! D101  D(19,20,21,51)        179.9996         estimate D2E/DX2                !
 ! D102  D(50,20,21,22)        179.9883         estimate D2E/DX2                !
 ! D103  D(50,20,21,51)         -0.0108         estimate D2E/DX2                !
 ! D104  D(20,21,22,17)          0.004          estimate D2E/DX2                !
 ! D105  D(20,21,22,52)       -179.8251         estimate D2E/DX2                !
 ! D106  D(51,21,22,17)       -179.9969         estimate D2E/DX2                !
 ! D107  D(51,21,22,52)          0.1741         estimate D2E/DX2                !
 ! D108  D(10,23,24,8)           0.0039         estimate D2E/DX2                !
 ! D109  D(10,23,24,25)        179.9776         estimate D2E/DX2                !
 ! D110  D(53,23,24,8)        -179.9896         estimate D2E/DX2                !
 ! D111  D(53,23,24,25)         -0.0159         estimate D2E/DX2                !
 ! D112  D(8,24,25,26)        -125.0924         estimate D2E/DX2                !
 ! D113  D(8,24,25,27)         120.2579         estimate D2E/DX2                !
 ! D114  D(8,24,25,28)           1.1474         estimate D2E/DX2                !
 ! D115  D(23,24,25,26)         54.9359         estimate D2E/DX2                !
 ! D116  D(23,24,25,27)        -59.7139         estimate D2E/DX2                !
 ! D117  D(23,24,25,28)       -178.8243         estimate D2E/DX2                !
 ! D118  D(24,25,28,29)        178.6244         estimate D2E/DX2                !
 ! D119  D(24,25,28,32)         -1.4221         estimate D2E/DX2                !
 ! D120  D(26,25,28,29)        -56.5685         estimate D2E/DX2                !
 ! D121  D(26,25,28,32)        123.385          estimate D2E/DX2                !
 ! D122  D(27,25,28,29)         60.0221         estimate D2E/DX2                !
 ! D123  D(27,25,28,32)       -120.0245         estimate D2E/DX2                !
 ! D124  D(25,28,29,30)        179.9582         estimate D2E/DX2                !
 ! D125  D(25,28,29,54)         -0.0467         estimate D2E/DX2                !
 ! D126  D(32,28,29,30)          0.0009         estimate D2E/DX2                !
 ! D127  D(32,28,29,54)        179.996          estimate D2E/DX2                !
 ! D128  D(25,28,32,7)           0.8616         estimate D2E/DX2                !
 ! D129  D(25,28,32,31)       -179.9633         estimate D2E/DX2                !
 ! D130  D(29,28,32,7)        -179.1781         estimate D2E/DX2                !
 ! D131  D(29,28,32,31)         -0.003          estimate D2E/DX2                !
 ! D132  D(28,29,30,31)          0.0016         estimate D2E/DX2                !
 ! D133  D(28,29,30,55)       -179.9782         estimate D2E/DX2                !
 ! D134  D(54,29,30,31)       -179.9935         estimate D2E/DX2                !
 ! D135  D(54,29,30,55)          0.0267         estimate D2E/DX2                !
 ! D136  D(29,30,31,32)         -0.0034         estimate D2E/DX2                !
 ! D137  D(29,30,31,56)        179.887          estimate D2E/DX2                !
 ! D138  D(55,30,31,32)        179.9754         estimate D2E/DX2                !
 ! D139  D(55,30,31,56)         -0.1342         estimate D2E/DX2                !
 ! D140  D(30,31,32,7)         179.1035         estimate D2E/DX2                !
 ! D141  D(30,31,32,28)          0.0038         estimate D2E/DX2                !
 ! D142  D(56,31,32,7)          -0.782          estimate D2E/DX2                !
 ! D143  D(56,31,32,28)       -179.8817         estimate D2E/DX2                !
 ! D144  D(6,33,34,57)         137.5473         estimate D2E/DX2                !
 ! D145  D(6,33,34,58)        -108.8272         estimate D2E/DX2                !
 ! D146  D(6,33,34,59)          16.6028         estimate D2E/DX2                !
 ! D147  D(35,33,34,57)        -41.129          estimate D2E/DX2                !
 ! D148  D(35,33,34,58)         72.4964         estimate D2E/DX2                !
 ! D149  D(35,33,34,59)       -162.0735         estimate D2E/DX2                !
 ! D150  D(6,33,35,2)           -0.048          estimate D2E/DX2                !
 ! D151  D(6,33,35,60)         179.9568         estimate D2E/DX2                !
 ! D152  D(34,33,35,2)         178.5817         estimate D2E/DX2                !
 ! D153  D(34,33,35,60)         -1.4135         estimate D2E/DX2                !
 --------------------------------------------------------------------------------
 Trust Radius=3.00D-01 FncErr=1.00D-07 GrdErr=1.00D-06 EigMax=2.50D+02 EigMin=1.00D-04
 Number of steps in this run=    336 maximum allowed number of steps=    360.
 GradGradGradGradGradGradGradGradGradGradGradGradGradGradGradGradGradGrad

 Leave Link  103 at Mon Dec  4 23:34:02 2023, MaxMem=  2147483648 cpu:               3.2 elap:               0.2
 (Enter /opt/gaussian/g16-c01/g16/l202.exe)
 Stoichiometry    C28H25BF2N2O2
 Framework group  C1[X(C28H25BF2N2O2)]
 Deg. of freedom   174
 Full point group                 C1      NOp   1
 Largest Abelian subgroup         C1      NOp   1
 Largest concise Abelian subgroup C1      NOp   1
                         Standard orientation:                         
 ---------------------------------------------------------------------
 Center     Atomic      Atomic             Coordinates (Angstroms)
 Number     Number       Type             X           Y           Z
 ---------------------------------------------------------------------
      1          6           0        5.025038    5.272683   -0.216109
      2          6           0        4.492292    3.882499   -0.143433
      3          6           0        4.938907    2.933859   -1.033867
      4          6           0        4.449079    1.622402   -0.980565
      5          6           0        4.933717    0.631329   -1.972488
      6          6           0        3.512293    1.235004   -0.044883
      7          6           0        3.028980   -0.147902    0.045318
      8          6           0        1.756858   -0.473974   -0.106394
      9          6           0        0.585775    0.348056   -0.381026
     10          6           0       -0.452313   -0.467735   -0.430806
     11          6           0       -1.831463   -0.000800   -0.691546
     12          6           0       -2.854787   -0.837126   -0.736167
     13          6           0       -4.220101   -0.396275   -0.991803
     14          8           0       -4.466225    0.819384   -1.182371
     15          8           0       -5.256207   -1.293610   -1.029228
     16          6           0       -6.594386   -0.980114   -1.264519
     17          6           0       -7.156034   -0.035395   -0.234386
     18          6           0       -8.383350    0.582112   -0.470599
     19          6           0       -8.916818    1.445329    0.458904
     20          6           0       -8.244370    1.707623    1.630573
     21          6           0       -7.032231    1.091857    1.853657
     22          6           0       -6.502325    0.235780    0.932850
     23          6           0       -0.025019   -1.838268   -0.196693
     24          7           0        1.255438   -1.798337   -0.014164
     25          5           0        2.192817   -2.945840    0.267210
     26          9           0        2.053315   -3.959776   -0.768414
     27          9           0        1.745120   -3.579828    1.515420
     28          7           0        3.625904   -2.504208    0.450728
     29          6           0        4.699310   -3.284786    0.739417
     30          6           0        5.758976   -2.439384    0.803537
     31          6           0        5.337873   -1.168983    0.558535
     32          6           0        3.977611   -1.220432    0.334874
     33          6           0        3.085575    2.207520    0.832731
     34          6           0        2.106957    1.863229    1.884694
     35          6           0        3.557770    3.517570    0.797985
     36          1           0        4.278897    5.905448   -0.757486
     37          1           0        5.964457    5.322896   -0.795757
     38          1           0        5.248988    5.685987    0.790944
     39          1           0        5.673694    3.215506   -1.775238
     40          1           0        4.287684   -0.260000   -1.954697
     41          1           0        5.987830    0.412780   -1.747995
     42          1           0        4.813802    1.052782   -3.003750
     43          1           0        0.582015    1.429904   -0.520909
     44          1           0       -2.051849    1.037837   -0.854441
     45          1           0       -2.677045   -1.890040   -0.577471
     46          1           0       -6.766651   -0.569409   -2.295991
     47          1           0       -7.235511   -1.883968   -1.201998
     48          1           0       -8.900562    0.368643   -1.392211
     49          1           0       -9.861405    1.910236    0.258906
     50          1           0       -8.625416    2.377340    2.387066
     51          1           0       -6.487053    1.279192    2.759626
     52          1           0       -5.537770   -0.272565    1.084959
     53          1           0       -0.693295   -2.684839   -0.188512
     54          1           0        4.712456   -4.360165    0.888705
     55          1           0        6.779286   -2.767176    1.020981
     56          1           0        5.993806   -0.282309    0.550401
     57          1           0        2.401487    2.346644    2.865154
     58          1           0        1.139799    2.335555    1.621162
     59          1           0        2.009290    0.794013    2.061585
     60          1           0        3.220239    4.278890    1.487972
 ---------------------------------------------------------------------
 Rotational constants (GHZ):           0.1835583           0.0470072           0.0400967
 Leave Link  202 at Mon Dec  4 23:34:02 2023, MaxMem=  2147483648 cpu:               2.8 elap:               0.2
 (Enter /opt/gaussian/g16-c01/g16/l301.exe)
 Standard basis: 6-311++G(d,p) (5D, 7F)
 Ernie: Thresh=  0.10000D-02 Tol=  0.10000D-05 Strict=F.
 There are   980 symmetry adapted cartesian basis functions of A   symmetry.
 There are   945 symmetry adapted basis functions of A   symmetry.
   945 basis functions,  1485 primitive gaussians,   980 cartesian basis functions
   123 alpha electrons      123 beta electrons
       nuclear repulsion energy      3397.0489460161 Hartrees.
 IExCor= 7252 DFT=T Ex+Corr=MN15 ExCW=0 ScaHFX=  0.440000
 ScaDFX=  1.000000  1.000000  1.000000  1.000000 ScalE2=  1.000000  1.000000
 IRadAn=      5 IRanWt=     -1 IRanGd=            0 ICorTp=0 IEmpDi=  4
 NAtoms=   60 NActive=   60 NUniq=   60 SFac= 1.00D+00 NAtFMM=   60 NAOKFM=T Big=T
 Integral buffers will be    131072 words long.
 Raffenetti 2 integral format.
 Two-electron integral symmetry is turned on.
 Leave Link  301 at Mon Dec  4 23:34:02 2023, MaxMem=  2147483648 cpu:               4.0 elap:               0.3
 (Enter /opt/gaussian/g16-c01/g16/l302.exe)
 NPDir=0 NMtPBC=     1 NCelOv=     1 NCel=       1 NClECP=     1 NCelD=      1
         NCelK=      1 NCelE2=     1 NClLst=     1 CellRange=     0.0.
 One-electron integrals computed using PRISM.
 One-electron integral symmetry used in STVInt
 NBasis=   945 RedAO= T EigKep=  2.54D-06  NBF=   945
 NBsUse=   932 1.00D-06 EigRej=  9.25D-07 NBFU=   932
 Precomputing XC quadrature grid using
 IXCGrd= 4 IRadAn=           5 IRanWt=          -1 IRanGd=           0 AccXCQ= 0.00D+00.
 Generated NRdTot=       0 NPtTot=           0 NUsed=           0 NTot=          32
 NSgBfM=   937   937   937   937   937 MxSgAt=    60 MxSgA2=    60.
 Leave Link  302 at Mon Dec  4 23:34:04 2023, MaxMem=  2147483648 cpu:              52.8 elap:               2.1
 (Enter /opt/gaussian/g16-c01/g16/l303.exe)
 DipDrv:  MaxL=1.
 Leave Link  303 at Mon Dec  4 23:34:05 2023, MaxMem=  2147483648 cpu:               7.4 elap:               0.4
 (Enter /opt/gaussian/g16-c01/g16/l401.exe)
 ExpMin= 3.15D-02 ExpMax= 1.14D+04 ExpMxC= 1.72D+03 IAcc=3 IRadAn=         5 AccDes= 0.00D+00
 Harris functional with IExCor= 1009 and IRadAn=       5 diagonalized for initial guess.
 HarFok:  IExCor= 1009 AccDes= 0.00D+00 IRadAn=         5 IDoV= 1 UseB2=F ITyADJ=14
 ICtDFT=  3500011 ScaDFX=  1.000000  1.000000  1.000000  1.000000
 FoFCou: FMM=F IPFlag=           0 FMFlag=      100000 FMFlg1=        2001
         NFxFlg=           0 DoJE=T BraDBF=F KetDBF=T FulRan=T
         wScrn=  0.000000 ICntrl=       500 IOpCl=  0 I1Cent=   200000004 NGrid=           0
         NMat0=    1 NMatS0=      1 NMatT0=    0 NMatD0=    1 NMtDS0=    0 NMtDT0=    0
 Petite list used in FoFCou.
 Harris En= -1565.67519323955    
 JPrj=0 DoOrth=F DoCkMO=F.
 Leave Link  401 at Mon Dec  4 23:34:10 2023, MaxMem=  2147483648 cpu:             132.1 elap:               5.2
 (Enter /opt/gaussian/g16-c01/g16/l502.exe)
 Integral symmetry usage will be decided dynamically.
 Closed shell SCF:
 Using DIIS extrapolation, IDIIS=  1040.
 NGot=  2147483648 LenX=  2145526802 LenY=  2144565422
 Requested convergence on RMS density matrix=1.00D-08 within 128 cycles.
 Requested convergence on MAX density matrix=1.00D-06.
 Requested convergence on             energy=1.00D-06.
 No special actions if energy rises.
 Fock matrices will be formed incrementally for  20 cycles.

 Cycle   1  Pass 1  IDiag  1:
 FoFJK:  IHMeth= 1 ICntrl=       0 DoSepK=F KAlg= 0 I1Cent=           0 FoldK=F
 IRaf= 800000000 NMat=       1 IRICut=       1 DoRegI=T DoRafI=F ISym2E= 0 IDoP0=0 IntGTp=1.
 FoFCou: FMM=T IPFlag=           0 FMFlag=      100000 FMFlg1=        2001
         NFxFlg=           0 DoJE=F BraDBF=F KetDBF=F FulRan=T
         wScrn=  0.000000 ICntrl=         0 IOpCl=  0 I1Cent=           0 NGrid=           0
         NMat0=    1 NMatS0=      1 NMatT0=    0 NMatD0=    1 NMtDS0=    0 NMtDT0=    0
 Symmetry not used in FoFCou.
 FMM levels:  10  Number of levels for PrismC:   9
 E= -1564.45636059175    
 DIIS: error= 1.66D-02 at cycle   1 NSaved=   1.
 NSaved= 1 IEnMin= 1 EnMin= -1564.45636059175     IErMin= 1 ErrMin= 1.66D-02
 ErrMax= 1.66D-02  0.00D+00 EMaxC= 1.00D-01 BMatC= 9.77D-01 BMatP= 9.77D-01
 IDIUse=3 WtCom= 8.34D-01 WtEn= 1.66D-01
 Coeff-Com:  0.100D+01
 Coeff-En:   0.100D+01
 Coeff:      0.100D+01
 Gap=     0.120 Goal=   None    Shift=    0.000
 GapD=    0.120 DampG=1.000 DampE=0.500 DampFc=0.5000 IDamp=-1.
 Damping current iteration by 5.00D-01
 RMSDP=1.09D-02 MaxDP=1.03D+00              OVMax= 2.56D-01

 Cycle   2  Pass 1  IDiag  1:
 RMSU=  5.31D-03    CP:  9.53D-01
 E= -1564.79502186210     Delta-E=       -0.338661270353 Rises=F Damp=T
 DIIS: error= 7.31D-03 at cycle   2 NSaved=   2.
 NSaved= 2 IEnMin= 2 EnMin= -1564.79502186210     IErMin= 2 ErrMin= 7.31D-03
 ErrMax= 7.31D-03  0.00D+00 EMaxC= 1.00D-01 BMatC= 1.26D-01 BMatP= 9.77D-01
 IDIUse=3 WtCom= 9.27D-01 WtEn= 7.31D-02
 Coeff-Com:  0.202D-01 0.980D+00
 Coeff-En:   0.843D-01 0.916D+00
 Coeff:      0.249D-01 0.975D+00
 Gap=     0.211 Goal=   None    Shift=    0.000
 RMSDP=7.51D-03 MaxDP=1.32D+00 DE=-3.39D-01 OVMax= 2.91D-01

 Cycle   3  Pass 1  IDiag  1:
 RMSU=  4.90D-03    CP:  7.45D-01  8.23D-01
 E= -1565.14187460491     Delta-E=       -0.346852742807 Rises=F Damp=F
 DIIS: error= 1.46D-02 at cycle   3 NSaved=   3.
 NSaved= 3 IEnMin= 3 EnMin= -1565.14187460491     IErMin= 2 ErrMin= 7.31D-03
 ErrMax= 1.46D-02  0.00D+00 EMaxC= 1.00D-01 BMatC= 1.22D-01 BMatP= 1.26D-01
 IDIUse=3 WtCom= 8.54D-01 WtEn= 1.46D-01
 Coeff-Com: -0.901D-01 0.545D+00 0.545D+00
 Coeff-En:   0.000D+00 0.000D+00 0.100D+01
 Coeff:     -0.769D-01 0.466D+00 0.611D+00
 Gap=     0.149 Goal=   None    Shift=    0.000
 RMSDP=2.45D-03 MaxDP=2.10D-01 DE=-3.47D-01 OVMax= 1.27D-01

 Cycle   4  Pass 1  IDiag  1:
 RMSU=  1.67D-03    CP:  7.45D-01  1.08D+00  7.69D-01
 E= -1565.20937101279     Delta-E=       -0.067496407883 Rises=F Damp=F
 DIIS: error= 9.13D-03 at cycle   4 NSaved=   4.
 NSaved= 4 IEnMin= 4 EnMin= -1565.20937101279     IErMin= 2 ErrMin= 7.31D-03
 ErrMax= 9.13D-03  0.00D+00 EMaxC= 1.00D-01 BMatC= 3.88D-02 BMatP= 1.22D-01
 IDIUse=3 WtCom= 9.09D-01 WtEn= 9.13D-02
 Coeff-Com: -0.364D-01 0.134D+00 0.384D+00 0.518D+00
 Coeff-En:   0.000D+00 0.000D+00 0.267D+00 0.733D+00
 Coeff:     -0.330D-01 0.122D+00 0.374D+00 0.538D+00
 Gap=     0.147 Goal=   None    Shift=    0.000
 RMSDP=1.06D-03 MaxDP=1.43D-01 DE=-6.75D-02 OVMax= 5.26D-02

 Cycle   5  Pass 1  IDiag  1:
 RMSU=  5.26D-04    CP:  7.32D-01  1.02D+00  8.46D-01  5.83D-01
 E= -1565.23767725410     Delta-E=       -0.028306241307 Rises=F Damp=F
 DIIS: error= 1.85D-03 at cycle   5 NSaved=   5.
 NSaved= 5 IEnMin= 5 EnMin= -1565.23767725410     IErMin= 5 ErrMin= 1.85D-03
 ErrMax= 1.85D-03  0.00D+00 EMaxC= 1.00D-01 BMatC= 1.51D-03 BMatP= 3.88D-02
 IDIUse=3 WtCom= 9.81D-01 WtEn= 1.85D-02
 Coeff-Com: -0.131D-01 0.372D-01 0.163D+00 0.290D+00 0.523D+00
 Coeff-En:   0.000D+00 0.000D+00 0.000D+00 0.000D+00 0.100D+01
 Coeff:     -0.129D-01 0.366D-01 0.160D+00 0.284D+00 0.532D+00
 Gap=     0.150 Goal=   None    Shift=    0.000
 RMSDP=2.17D-04 MaxDP=2.35D-02 DE=-2.83D-02 OVMax= 1.22D-02

 Cycle   6  Pass 1  IDiag  1:
 RMSU=  1.91D-04    CP:  7.32D-01  1.03D+00  8.50D-01  6.11D-01  8.34D-01
 E= -1565.23869653966     Delta-E=       -0.001019285561 Rises=F Damp=F
 DIIS: error= 3.38D-04 at cycle   6 NSaved=   6.
 NSaved= 6 IEnMin= 6 EnMin= -1565.23869653966     IErMin= 6 ErrMin= 3.38D-04
 ErrMax= 3.38D-04  0.00D+00 EMaxC= 1.00D-01 BMatC= 1.46D-04 BMatP= 1.51D-03
 IDIUse=3 WtCom= 9.97D-01 WtEn= 3.38D-03
 Coeff-Com: -0.230D-02 0.341D-02 0.295D-01 0.729D-01 0.284D+00 0.613D+00
 Coeff-En:   0.000D+00 0.000D+00 0.000D+00 0.000D+00 0.429D-01 0.957D+00
 Coeff:     -0.229D-02 0.340D-02 0.294D-01 0.726D-01 0.283D+00 0.614D+00
 Gap=     0.150 Goal=   None    Shift=    0.000
 RMSDP=9.50D-05 MaxDP=8.90D-03 DE=-1.02D-03 OVMax= 5.85D-03

 Cycle   7  Pass 1  IDiag  1:
 RMSU=  8.50D-05    CP:  7.33D-01  1.03D+00  8.56D-01  6.18D-01  8.88D-01
                    CP:  9.97D-01
 E= -1565.23881635751     Delta-E=       -0.000119817858 Rises=F Damp=F
 DIIS: error= 7.77D-05 at cycle   7 NSaved=   7.
 NSaved= 7 IEnMin= 7 EnMin= -1565.23881635751     IErMin= 7 ErrMin= 7.77D-05
 ErrMax= 7.77D-05  0.00D+00 EMaxC= 1.00D-01 BMatC= 1.33D-05 BMatP= 1.46D-04
 IDIUse=1 WtCom= 1.00D+00 WtEn= 0.00D+00
 Coeff-Com:  0.203D-03-0.221D-02-0.321D-02 0.495D-02 0.939D-01 0.309D+00
 Coeff-Com:  0.597D+00
 Coeff:      0.203D-03-0.221D-02-0.321D-02 0.495D-02 0.939D-01 0.309D+00
 Coeff:      0.597D+00
 Gap=     0.150 Goal=   None    Shift=    0.000
 RMSDP=2.32D-05 MaxDP=2.27D-03 DE=-1.20D-04 OVMax= 9.46D-04

 Cycle   8  Pass 1  IDiag  1:
 RMSU=  1.76D-05    CP:  7.33D-01  1.03D+00  8.55D-01  6.18D-01  9.00D-01
                    CP:  1.06D+00  9.52D-01
 E= -1565.23882765047     Delta-E=       -0.000011292956 Rises=F Damp=F
 DIIS: error= 3.66D-05 at cycle   8 NSaved=   8.
 NSaved= 8 IEnMin= 8 EnMin= -1565.23882765047     IErMin= 8 ErrMin= 3.66D-05
 ErrMax= 3.66D-05  0.00D+00 EMaxC= 1.00D-01 BMatC= 1.62D-06 BMatP= 1.33D-05
 IDIUse=1 WtCom= 1.00D+00 WtEn= 0.00D+00
 Coeff-Com:  0.401D-03-0.166D-02-0.533D-02-0.696D-02 0.142D-01 0.776D-01
 Coeff-Com:  0.295D+00 0.626D+00
 Coeff:      0.401D-03-0.166D-02-0.533D-02-0.696D-02 0.142D-01 0.776D-01
 Coeff:      0.295D+00 0.626D+00
 Gap=     0.150 Goal=   None    Shift=    0.000
 RMSDP=1.24D-05 MaxDP=1.52D-03 DE=-1.13D-05 OVMax= 6.29D-04

 Cycle   9  Pass 1  IDiag  1:
 RMSU=  7.76D-06    CP:  7.32D-01  1.03D+00  8.55D-01  6.18D-01  9.11D-01
                    CP:  1.09D+00  1.01D+00  9.81D-01
 E= -1565.23882908003     Delta-E=       -0.000001429560 Rises=F Damp=F
 DIIS: error= 1.25D-05 at cycle   9 NSaved=   9.
 NSaved= 9 IEnMin= 9 EnMin= -1565.23882908003     IErMin= 9 ErrMin= 1.25D-05
 ErrMax= 1.25D-05  0.00D+00 EMaxC= 1.00D-01 BMatC= 2.46D-07 BMatP= 1.62D-06
 IDIUse=1 WtCom= 1.00D+00 WtEn= 0.00D+00
 Coeff-Com:  0.197D-03-0.606D-03-0.225D-02-0.419D-02-0.360D-02 0.189D-02
 Coeff-Com:  0.747D-01 0.316D+00 0.618D+00
 Coeff:      0.197D-03-0.606D-03-0.225D-02-0.419D-02-0.360D-02 0.189D-02
 Coeff:      0.747D-01 0.316D+00 0.618D+00
 Gap=     0.150 Goal=   None    Shift=    0.000
 RMSDP=5.18D-06 MaxDP=4.84D-04 DE=-1.43D-06 OVMax= 2.60D-04

 Cycle  10  Pass 1  IDiag  1:
 RMSU=  3.56D-06    CP:  7.32D-01  1.03D+00  8.55D-01  6.17D-01  9.13D-01
                    CP:  1.09D+00  1.01D+00  1.08D+00  7.51D-01
 E= -1565.23882933485     Delta-E=       -0.000000254822 Rises=F Damp=F
 DIIS: error= 8.27D-06 at cycle  10 NSaved=  10.
 NSaved=10 IEnMin=10 EnMin= -1565.23882933485     IErMin=10 ErrMin= 8.27D-06
 ErrMax= 8.27D-06  0.00D+00 EMaxC= 1.00D-01 BMatC= 6.34D-08 BMatP= 2.46D-07
 IDIUse=1 WtCom= 1.00D+00 WtEn= 0.00D+00
 Coeff-Com:  0.551D-04-0.763D-04-0.467D-03-0.143D-02-0.496D-02-0.130D-01
 Coeff-Com: -0.858D-02 0.646D-01 0.374D+00 0.590D+00
 Coeff:      0.551D-04-0.763D-04-0.467D-03-0.143D-02-0.496D-02-0.130D-01
 Coeff:     -0.858D-02 0.646D-01 0.374D+00 0.590D+00
 Gap=     0.150 Goal=   None    Shift=    0.000
 RMSDP=3.20D-06 MaxDP=3.11D-04 DE=-2.55D-07 OVMax= 1.28D-04

 Cycle  11  Pass 1  IDiag  1:
 RMSU=  1.34D-06    CP:  7.32D-01  1.03D+00  8.55D-01  6.17D-01  9.14D-01
                    CP:  1.10D+00  1.03D+00  1.07D+00  8.96D-01  8.07D-01
 E= -1565.23882940406     Delta-E=       -0.000000069212 Rises=F Damp=F
 DIIS: error= 3.19D-06 at cycle  11 NSaved=  11.
 NSaved=11 IEnMin=11 EnMin= -1565.23882940406     IErMin=11 ErrMin= 3.19D-06
 ErrMax= 3.19D-06  0.00D+00 EMaxC= 1.00D-01 BMatC= 6.71D-09 BMatP= 6.34D-08
 IDIUse=1 WtCom= 1.00D+00 WtEn= 0.00D+00
 Coeff-Com: -0.755D-05 0.675D-04 0.171D-03 0.551D-04-0.188D-02-0.702D-02
 Coeff-Com: -0.171D-01-0.256D-01 0.942D-01 0.301D+00 0.656D+00
 Coeff:     -0.755D-05 0.675D-04 0.171D-03 0.551D-04-0.188D-02-0.702D-02
 Coeff:     -0.171D-01-0.256D-01 0.942D-01 0.301D+00 0.656D+00
 Gap=     0.150 Goal=   None    Shift=    0.000
 RMSDP=7.10D-07 MaxDP=6.80D-05 DE=-6.92D-08 OVMax= 3.15D-05

 Cycle  12  Pass 1  IDiag  1:
 RMSU=  5.04D-07    CP:  7.32D-01  1.03D+00  8.55D-01  6.17D-01  9.14D-01
                    CP:  1.10D+00  1.03D+00  1.08D+00  9.28D-01  9.03D-01
                    CP:  9.09D-01
 E= -1565.23882941150     Delta-E=       -0.000000007434 Rises=F Damp=F
 DIIS: error= 1.34D-06 at cycle  12 NSaved=  12.
 NSaved=12 IEnMin=12 EnMin= -1565.23882941150     IErMin=12 ErrMin= 1.34D-06
 ErrMax= 1.34D-06  0.00D+00 EMaxC= 1.00D-01 BMatC= 8.34D-10 BMatP= 6.71D-09
 IDIUse=1 WtCom= 1.00D+00 WtEn= 0.00D+00
 Coeff-Com: -0.108D-04 0.430D-04 0.129D-03 0.182D-03-0.374D-03-0.194D-02
 Coeff-Com: -0.685D-02-0.201D-01 0.280D-02 0.709D-01 0.319D+00 0.636D+00
 Coeff:     -0.108D-04 0.430D-04 0.129D-03 0.182D-03-0.374D-03-0.194D-02
 Coeff:     -0.685D-02-0.201D-01 0.280D-02 0.709D-01 0.319D+00 0.636D+00
 Gap=     0.150 Goal=   None    Shift=    0.000
 RMSDP=2.25D-07 MaxDP=2.03D-05 DE=-7.43D-09 OVMax= 1.38D-05

 Cycle  13  Pass 1  IDiag  1:
 RMSU=  1.37D-07    CP:  7.32D-01  1.03D+00  8.55D-01  6.17D-01  9.14D-01
                    CP:  1.10D+00  1.03D+00  1.08D+00  9.36D-01  9.01D-01
                    CP:  9.78D-01  9.19D-01
 E= -1565.23882941275     Delta-E=       -0.000000001256 Rises=F Damp=F
 DIIS: error= 3.18D-07 at cycle  13 NSaved=  13.
 NSaved=13 IEnMin=13 EnMin= -1565.23882941275     IErMin=13 ErrMin= 3.18D-07
 ErrMax= 3.18D-07  0.00D+00 EMaxC= 1.00D-01 BMatC= 1.09D-10 BMatP= 8.34D-10
 IDIUse=1 WtCom= 1.00D+00 WtEn= 0.00D+00
 Coeff-Com: -0.383D-05 0.106D-04 0.341D-04 0.707D-04 0.998D-04 0.147D-03
 Coeff-Com: -0.371D-03-0.547D-02-0.122D-01-0.135D-01 0.519D-01 0.304D+00
 Coeff-Com:  0.675D+00
 Coeff:     -0.383D-05 0.106D-04 0.341D-04 0.707D-04 0.998D-04 0.147D-03
 Coeff:     -0.371D-03-0.547D-02-0.122D-01-0.135D-01 0.519D-01 0.304D+00
 Coeff:      0.675D+00
 Gap=     0.150 Goal=   None    Shift=    0.000
 RMSDP=9.57D-08 MaxDP=1.18D-05 DE=-1.26D-09 OVMax= 4.49D-06

 Cycle  14  Pass 1  IDiag  1:
 RMSU=  5.78D-08    CP:  7.32D-01  1.03D+00  8.55D-01  6.17D-01  9.14D-01
                    CP:  1.10D+00  1.03D+00  1.08D+00  9.38D-01  9.13D-01
                    CP:  9.87D-01  9.77D-01  1.09D+00
 E= -1565.23882941306     Delta-E=       -0.000000000309 Rises=F Damp=F
 DIIS: error= 9.97D-08 at cycle  14 NSaved=  14.
 NSaved=14 IEnMin=14 EnMin= -1565.23882941306     IErMin=14 ErrMin= 9.97D-08
 ErrMax= 9.97D-08  0.00D+00 EMaxC= 1.00D-01 BMatC= 1.09D-11 BMatP= 1.09D-10
 IDIUse=1 WtCom= 1.00D+00 WtEn= 0.00D+00
 Coeff-Com: -0.260D-06-0.917D-06 0.750D-06 0.863D-05 0.951D-04 0.301D-03
 Coeff-Com:  0.719D-03 0.509D-04-0.497D-02-0.140D-01-0.173D-01 0.515D-01
 Coeff-Com:  0.269D+00 0.715D+00
 Coeff:     -0.260D-06-0.917D-06 0.750D-06 0.863D-05 0.951D-04 0.301D-03
 Coeff:      0.719D-03 0.509D-04-0.497D-02-0.140D-01-0.173D-01 0.515D-01
 Coeff:      0.269D+00 0.715D+00
 Gap=     0.150 Goal=   None    Shift=    0.000
 RMSDP=2.86D-08 MaxDP=2.66D-06 DE=-3.09D-10 OVMax= 2.18D-06

 Cycle  15  Pass 1  IDiag  1:
 RMSU=  1.98D-08    CP:  7.32D-01  1.03D+00  8.55D-01  6.17D-01  9.14D-01
                    CP:  1.10D+00  1.03D+00  1.08D+00  9.38D-01  9.11D-01
                    CP:  9.91D-01  9.93D-01  1.15D+00  1.05D+00
 E= -1565.23882941286     Delta-E=        0.000000000206 Rises=F Damp=F
 DIIS: error= 3.70D-08 at cycle  15 NSaved=  15.
 NSaved=15 IEnMin=14 EnMin= -1565.23882941306     IErMin=15 ErrMin= 3.70D-08
 ErrMax= 3.70D-08  0.00D+00 EMaxC= 1.00D-01 BMatC= 1.69D-12 BMatP= 1.09D-11
 IDIUse=1 WtCom= 1.00D+00 WtEn= 0.00D+00
 Coeff-Com:  0.440D-06-0.164D-05-0.330D-05-0.582D-05 0.213D-04 0.854D-04
 Coeff-Com:  0.293D-03 0.605D-03-0.198D-03-0.340D-02-0.136D-01-0.212D-01
 Coeff-Com: -0.238D-03 0.274D+00 0.763D+00
 Coeff:      0.440D-06-0.164D-05-0.330D-05-0.582D-05 0.213D-04 0.854D-04
 Coeff:      0.293D-03 0.605D-03-0.198D-03-0.340D-02-0.136D-01-0.212D-01
 Coeff:     -0.238D-03 0.274D+00 0.763D+00
 Gap=     0.150 Goal=   None    Shift=    0.000
 RMSDP=1.79D-08 MaxDP=1.78D-06 DE= 2.06D-10 OVMax= 8.78D-07

 Cycle  16  Pass 1  IDiag  1:
 RMSU=  1.08D-08    CP:  7.32D-01  1.03D+00  8.55D-01  6.17D-01  9.14D-01
                    CP:  1.10D+00  1.03D+00  1.08D+00  9.39D-01  9.11D-01
                    CP:  9.92D-01  1.00D+00  1.18D+00  1.14D+00  9.91D-01
 E= -1565.23882941281     Delta-E=        0.000000000044 Rises=F Damp=F
 DIIS: error= 1.78D-08 at cycle  16 NSaved=  16.
 NSaved=16 IEnMin=14 EnMin= -1565.23882941306     IErMin=16 ErrMin= 1.78D-08
 ErrMax= 1.78D-08  0.00D+00 EMaxC= 1.00D-01 BMatC= 3.66D-13 BMatP= 1.69D-12
 IDIUse=1 WtCom= 1.00D+00 WtEn= 0.00D+00
 Coeff-Com:  0.280D-06-0.720D-06-0.175D-05-0.422D-05-0.567D-05-0.474D-05
 Coeff-Com:  0.246D-04 0.286D-03 0.801D-03 0.722D-03-0.375D-02-0.190D-01
 Coeff-Com: -0.488D-01 0.175D-01 0.378D+00 0.675D+00
 Coeff:      0.280D-06-0.720D-06-0.175D-05-0.422D-05-0.567D-05-0.474D-05
 Coeff:      0.246D-04 0.286D-03 0.801D-03 0.722D-03-0.375D-02-0.190D-01
 Coeff:     -0.488D-01 0.175D-01 0.378D+00 0.675D+00
 Gap=     0.150 Goal=   None    Shift=    0.000
 RMSDP=6.22D-09 MaxDP=4.03D-07 DE= 4.37D-11 OVMax= 3.58D-07

 SCF Done:  E(RMN15) =  -1565.23882941     A.U. after   16 cycles
            NFock= 16  Conv=0.62D-08     -V/T= 2.0027
 KE= 1.560980317249D+03 PE=-1.044875488530D+04 EE= 3.925486792624D+03
 Leave Link  502 at Mon Dec  4 23:41:32 2023, MaxMem=  2147483648 cpu:           11387.5 elap:             441.6
 (Enter /opt/gaussian/g16-c01/g16/l601.exe)
 Copying SCF densities to generalized density rwf, IOpCl= 0 IROHF=0.

 **********************************************************************

            Population analysis using the SCF Density.

 **********************************************************************

 Orbital symmetries:
       Occupied  (A) (A) (A) (A) (A) (A) (A) (A) (A) (A) (A) (A)
                 (A) (A) (A) (A) (A) (A) (A) (A) (A) (A) (A) (A)
                 (A) (A) (A) (A) (A) (A) (A) (A) (A) (A) (A) (A)
                 (A) (A) (A) (A) (A) (A) (A) (A) (A) (A) (A) (A)
                 (A) (A) (A) (A) (A) (A) (A) (A) (A) (A) (A) (A)
                 (A) (A) (A) (A) (A) (A) (A) (A) (A) (A) (A) (A)
                 (A) (A) (A) (A) (A) (A) (A) (A) (A) (A) (A) (A)
                 (A) (A) (A) (A) (A) (A) (A) (A) (A) (A) (A) (A)
                 (A) (A) (A) (A) (A) (A) (A) (A) (A) (A) (A) (A)
                 (A) (A) (A) (A) (A) (A) (A) (A) (A) (A) (A) (A)
                 (A) (A) (A)
       Virtual   (A) (A) (A) (A) (A) (A) (A) (A) (A) (A) (A) (A)
                 (A) (A) (A) (A) (A) (A) (A) (A) (A) (A) (A) (A)
                 (A) (A) (A) (A) (A) (A) (A) (A) (A) (A) (A) (A)
                 (A) (A) (A) (A) (A) (A) (A) (A) (A) (A) (A) (A)
                 (A) (A) (A) (A) (A) (A) (A) (A) (A) (A) (A) (A)
                 (A) (A) (A) (A) (A) (A) (A) (A) (A) (A) (A) (A)
                 (A) (A) (A) (A) (A) (A) (A) (A) (A) (A) (A) (A)
                 (A) (A) (A) (A) (A) (A) (A) (A) (A) (A) (A) (A)
                 (A) (A) (A) (A) (A) (A) (A) (A) (A) (A) (A) (A)
                 (A) (A) (A) (A) (A) (A) (A) (A) (A) (A) (A) (A)
                 (A) (A) (A) (A) (A) (A) (A) (A) (A) (A) (A) (A)
                 (A) (A) (A) (A) (A) (A) (A) (A) (A) (A) (A) (A)
                 (A) (A) (A) (A) (A) (A) (A) (A) (A) (A) (A) (A)
                 (A) (A) (A) (A) (A) (A) (A) (A) (A) (A) (A) (A)
                 (A) (A) (A) (A) (A) (A) (A) (A) (A) (A) (A) (A)
                 (A) (A) (A) (A) (A) (A) (A) (A) (A) (A) (A) (A)
                 (A) (A) (A) (A) (A) (A) (A) (A) (A) (A) (A) (A)
                 (A) (A) (A) (A) (A) (A) (A) (A) (A) (A) (A) (A)
                 (A) (A) (A) (A) (A) (A) (A) (A) (A) (A) (A) (A)
                 (A) (A) (A) (A) (A) (A) (A) (A) (A) (A) (A) (A)
                 (A) (A) (A) (A) (A) (A) (A) (A) (A) (A) (A) (A)
                 (A) (A) (A) (A) (A) (A) (A) (A) (A) (A) (A) (A)
                 (A) (A) (A) (A) (A) (A) (A) (A) (A) (A) (A) (A)
                 (A) (A) (A) (A) (A) (A) (A) (A) (A) (A) (A) (A)
                 (A) (A) (A) (A) (A) (A) (A) (A) (A) (A) (A) (A)
                 (A) (A) (A) (A) (A) (A) (A) (A) (A) (A) (A) (A)
                 (A) (A) (A) (A) (A) (A) (A) (A) (A) (A) (A) (A)
                 (A) (A) (A) (A) (A) (A) (A) (A) (A) (A) (A) (A)
                 (A) (A) (A) (A) (A) (A) (A) (A) (A) (A) (A) (A)
                 (A) (A) (A) (A) (A) (A) (A) (A) (A) (A) (A) (A)
                 (A) (A) (A) (A) (A) (A) (A) (A) (A) (A) (A) (A)
                 (A) (A) (A) (A) (A) (A) (A) (A) (A) (A) (A) (A)
                 (A) (A) (A) (A) (A) (A) (A) (A) (A) (A) (A) (A)
                 (A) (A) (A) (A) (A) (A) (A) (A) (A) (A) (A) (A)
                 (A) (A) (A) (A) (A) (A) (A) (A) (A) (A) (A) (A)
                 (A) (A) (A) (A) (A) (A) (A) (A) (A) (A) (A) (A)
                 (A) (A) (A) (A) (A) (A) (A) (A) (A) (A) (A) (A)
                 (A) (A) (A) (A) (A) (A) (A) (A) (A) (A) (A) (A)
                 (A) (A) (A) (A) (A) (A) (A) (A) (A) (A) (A) (A)
                 (A) (A) (A) (A) (A) (A) (A) (A) (A) (A) (A) (A)
                 (A) (A) (A) (A) (A) (A) (A) (A) (A) (A) (A) (A)
                 (A) (A) (A) (A) (A) (A) (A) (A) (A) (A) (A) (A)
                 (A) (A) (A) (A) (A) (A) (A) (A) (A) (A) (A) (A)
                 (A) (A) (A) (A) (A) (A) (A) (A) (A) (A) (A) (A)
                 (A) (A) (A) (A) (A) (A) (A) (A) (A) (A) (A) (A)
                 (A) (A) (A) (A) (A) (A) (A) (A) (A) (A) (A) (A)
                 (A) (A) (A) (A) (A) (A) (A) (A) (A) (A) (A) (A)
                 (A) (A) (A) (A) (A) (A) (A) (A) (A) (A) (A) (A)
                 (A) (A) (A) (A) (A) (A) (A) (A) (A) (A) (A) (A)
                 (A) (A) (A) (A) (A) (A) (A) (A) (A) (A) (A) (A)
                 (A) (A) (A) (A) (A) (A) (A) (A) (A) (A) (A) (A)
                 (A) (A) (A) (A) (A) (A) (A) (A) (A) (A) (A) (A)
                 (A) (A) (A) (A) (A) (A) (A) (A) (A) (A) (A) (A)
                 (A) (A) (A) (A) (A) (A) (A) (A) (A) (A) (A) (A)
                 (A) (A) (A) (A) (A) (A) (A) (A) (A) (A) (A) (A)
                 (A) (A) (A) (A) (A) (A) (A) (A) (A) (A) (A) (A)
                 (A) (A) (A) (A) (A) (A) (A) (A) (A) (A) (A) (A)
                 (A) (A) (A) (A) (A) (A) (A) (A) (A) (A) (A) (A)
                 (A) (A) (A) (A) (A) (A) (A) (A) (A) (A) (A) (A)
                 (A) (A) (A) (A) (A) (A) (A) (A) (A) (A) (A) (A)
                 (A) (A) (A) (A) (A) (A) (A) (A) (A) (A) (A) (A)
                 (A) (A) (A) (A) (A) (A) (A) (A) (A) (A) (A) (A)
                 (A) (A) (A) (A) (A) (A) (A) (A) (A) (A) (A) (A)
                 (A) (A) (A) (A) (A) (A) (A) (A) (A) (A) (A) (A)
                 (A) (A) (A) (A) (A) (A) (A) (A) (A) (A) (A) (A)
                 (A) (A) (A) (A) (A) (A) (A) (A) (A) (A) (A) (A)
                 (A) (A) (A) (A) (A) (A) (A) (A) (A) (A) (A) (A)
                 (A) (A) (A) (A) (A)
 The electronic state is 1-A.
 Alpha  occ. eigenvalues --  -24.19458 -24.18646 -18.85873 -18.79270 -14.16655
 Alpha  occ. eigenvalues --  -14.12293 -10.19497 -10.13601 -10.11638 -10.11577
 Alpha  occ. eigenvalues --  -10.10947 -10.08732 -10.08580 -10.08385 -10.08284
 Alpha  occ. eigenvalues --  -10.08154 -10.07158 -10.06975 -10.06886 -10.06727
 Alpha  occ. eigenvalues --  -10.06362 -10.05212 -10.04818 -10.04795 -10.04777
 Alpha  occ. eigenvalues --  -10.04749 -10.04602 -10.04453 -10.03866 -10.03740
 Alpha  occ. eigenvalues --  -10.03518 -10.03446 -10.03368 -10.03249  -6.77815
 Alpha  occ. eigenvalues --   -1.17443  -1.15457  -1.13892  -1.08063  -1.05215
 Alpha  occ. eigenvalues --   -1.04982  -0.95300  -0.91647  -0.90654  -0.90092
 Alpha  occ. eigenvalues --   -0.85747  -0.85468  -0.85035  -0.83438  -0.82772
 Alpha  occ. eigenvalues --   -0.79519  -0.79388  -0.76833  -0.76628  -0.76122
 Alpha  occ. eigenvalues --   -0.73900  -0.72267  -0.71274  -0.67025  -0.66328
 Alpha  occ. eigenvalues --   -0.65416  -0.65285  -0.64032  -0.63646  -0.63215
 Alpha  occ. eigenvalues --   -0.61783  -0.60621  -0.60199  -0.58095  -0.57875
 Alpha  occ. eigenvalues --   -0.56911  -0.56333  -0.55215  -0.54275  -0.53641
 Alpha  occ. eigenvalues --   -0.53450  -0.52169  -0.51357  -0.50751  -0.50185
 Alpha  occ. eigenvalues --   -0.49851  -0.49637  -0.49326  -0.49100  -0.48633
 Alpha  occ. eigenvalues --   -0.48293  -0.48017  -0.47824  -0.47641  -0.47216
 Alpha  occ. eigenvalues --   -0.46733  -0.46257  -0.45851  -0.45518  -0.45332
 Alpha  occ. eigenvalues --   -0.45108  -0.44425  -0.44162  -0.43591  -0.43369
 Alpha  occ. eigenvalues --   -0.41784  -0.41698  -0.41477  -0.41227  -0.40798
 Alpha  occ. eigenvalues --   -0.39924  -0.39466  -0.39327  -0.39217  -0.39055
 Alpha  occ. eigenvalues --   -0.38723  -0.38217  -0.37535  -0.35813  -0.35221
 Alpha  occ. eigenvalues --   -0.33353  -0.31390  -0.30428  -0.29544  -0.29111
 Alpha  occ. eigenvalues --   -0.28763  -0.27931  -0.25979
 Alpha virt. eigenvalues --   -0.10980  -0.05845  -0.01201   0.00197   0.01209
 Alpha virt. eigenvalues --    0.02008   0.02036   0.02833   0.03214   0.03667
 Alpha virt. eigenvalues --    0.03802   0.04083   0.04465   0.04618   0.05165
 Alpha virt. eigenvalues --    0.05414   0.05726   0.05898   0.06056   0.06247
 Alpha virt. eigenvalues --    0.06487   0.06766   0.07175   0.07256   0.07661
 Alpha virt. eigenvalues --    0.07797   0.08198   0.08282   0.08706   0.08868
 Alpha virt. eigenvalues --    0.08874   0.09213   0.09706   0.09883   0.10346
 Alpha virt. eigenvalues --    0.10694   0.10759   0.11200   0.11223   0.11435
 Alpha virt. eigenvalues --    0.11625   0.12110   0.12364   0.12519   0.12705
 Alpha virt. eigenvalues --    0.12910   0.13048   0.13124   0.13396   0.13522
 Alpha virt. eigenvalues --    0.13670   0.14070   0.14093   0.14231   0.14453
 Alpha virt. eigenvalues --    0.14615   0.14787   0.14950   0.15096   0.15203
 Alpha virt. eigenvalues --    0.15295   0.15440   0.15484   0.15696   0.15956
 Alpha virt. eigenvalues --    0.16129   0.16191   0.16410   0.16419   0.16640
 Alpha virt. eigenvalues --    0.16796   0.16884   0.17178   0.17337   0.17651
 Alpha virt. eigenvalues --    0.17798   0.18037   0.18126   0.18346   0.18454
 Alpha virt. eigenvalues --    0.18518   0.18802   0.18976   0.19059   0.19180
 Alpha virt. eigenvalues --    0.19415   0.19553   0.19724   0.19839   0.20222
 Alpha virt. eigenvalues --    0.20472   0.20501   0.20748   0.21043   0.21267
 Alpha virt. eigenvalues --    0.21292   0.21667   0.21752   0.21784   0.21964
 Alpha virt. eigenvalues --    0.22079   0.22253   0.22347   0.22436   0.22850
 Alpha virt. eigenvalues --    0.23029   0.23360   0.23599   0.23711   0.23782
 Alpha virt. eigenvalues --    0.23999   0.24331   0.24658   0.24670   0.24993
 Alpha virt. eigenvalues --    0.25107   0.25165   0.25629   0.25772   0.25864
 Alpha virt. eigenvalues --    0.26282   0.26542   0.26757   0.26824   0.27053
 Alpha virt. eigenvalues --    0.27165   0.27531   0.27954   0.28257   0.28497
 Alpha virt. eigenvalues --    0.28782   0.29024   0.29137   0.29469   0.29523
 Alpha virt. eigenvalues --    0.29762   0.30017   0.30102   0.30208   0.30406
 Alpha virt. eigenvalues --    0.30854   0.31029   0.31053   0.31383   0.31559
 Alpha virt. eigenvalues --    0.31692   0.31918   0.32093   0.32392   0.32518
 Alpha virt. eigenvalues --    0.32929   0.33050   0.33194   0.33440   0.33660
 Alpha virt. eigenvalues --    0.33767   0.34023   0.34115   0.34475   0.34631
 Alpha virt. eigenvalues --    0.34902   0.35033   0.35384   0.35634   0.35866
 Alpha virt. eigenvalues --    0.36085   0.36263   0.36580   0.36698   0.36872
 Alpha virt. eigenvalues --    0.36955   0.37206   0.37446   0.37765   0.37922
 Alpha virt. eigenvalues --    0.38104   0.38380   0.38491   0.38805   0.38957
 Alpha virt. eigenvalues --    0.39452   0.39578   0.39857   0.39990   0.40297
 Alpha virt. eigenvalues --    0.40418   0.40814   0.41014   0.41300   0.41581
 Alpha virt. eigenvalues --    0.41846   0.42537   0.42616   0.43106   0.43440
 Alpha virt. eigenvalues --    0.43520   0.44056   0.44377   0.44614   0.44851
 Alpha virt. eigenvalues --    0.45173   0.45617   0.46131   0.46756   0.47254
 Alpha virt. eigenvalues --    0.47510   0.47813   0.48126   0.48228   0.49003
 Alpha virt. eigenvalues --    0.49681   0.49926   0.50446   0.51141   0.51336
 Alpha virt. eigenvalues --    0.51600   0.51889   0.52234   0.52912   0.53244
 Alpha virt. eigenvalues --    0.53444   0.54269   0.54441   0.54624   0.54698
 Alpha virt. eigenvalues --    0.55654   0.56138   0.56351   0.56740   0.57322
 Alpha virt. eigenvalues --    0.58106   0.58236   0.58309   0.58411   0.59140
 Alpha virt. eigenvalues --    0.59734   0.59998   0.60173   0.60422   0.60557
 Alpha virt. eigenvalues --    0.60687   0.60846   0.61370   0.61871   0.62015
 Alpha virt. eigenvalues --    0.62481   0.62769   0.63025   0.63283   0.63738
 Alpha virt. eigenvalues --    0.64206   0.64484   0.64869   0.65270   0.65282
 Alpha virt. eigenvalues --    0.65489   0.65875   0.66060   0.66523   0.66728
 Alpha virt. eigenvalues --    0.67064   0.67274   0.67736   0.67919   0.68012
 Alpha virt. eigenvalues --    0.68334   0.68895   0.69038   0.69260   0.69680
 Alpha virt. eigenvalues --    0.69886   0.70124   0.70725   0.71191   0.71430
 Alpha virt. eigenvalues --    0.71600   0.71880   0.72622   0.72698   0.73330
 Alpha virt. eigenvalues --    0.73503   0.74067   0.74552   0.74697   0.74967
 Alpha virt. eigenvalues --    0.75209   0.75778   0.76064   0.76098   0.76555
 Alpha virt. eigenvalues --    0.76987   0.77397   0.77781   0.77991   0.78091
 Alpha virt. eigenvalues --    0.78268   0.78861   0.79080   0.79273   0.79759
 Alpha virt. eigenvalues --    0.80271   0.80620   0.80938   0.81109   0.81222
 Alpha virt. eigenvalues --    0.81713   0.82337   0.82526   0.82733   0.83260
 Alpha virt. eigenvalues --    0.83606   0.84654   0.85499   0.85615   0.86563
 Alpha virt. eigenvalues --    0.87045   0.87383   0.88147   0.88633   0.89550
 Alpha virt. eigenvalues --    0.89642   0.90065   0.90206   0.90386   0.90840
 Alpha virt. eigenvalues --    0.91014   0.91624   0.91796   0.92427   0.92841
 Alpha virt. eigenvalues --    0.93046   0.93654   0.93834   0.94311   0.94856
 Alpha virt. eigenvalues --    0.95582   0.95937   0.96471   0.96879   0.97011
 Alpha virt. eigenvalues --    0.97534   0.97879   0.98388   0.99058   0.99442
 Alpha virt. eigenvalues --    0.99799   0.99944   1.00464   1.00784   1.02096
 Alpha virt. eigenvalues --    1.02372   1.02861   1.03516   1.03833   1.04231
 Alpha virt. eigenvalues --    1.04855   1.05023   1.05373   1.05960   1.06699
 Alpha virt. eigenvalues --    1.06881   1.07059   1.07552   1.07935   1.08376
 Alpha virt. eigenvalues --    1.08953   1.09431   1.09787   1.10027   1.10524
 Alpha virt. eigenvalues --    1.10978   1.11640   1.11967   1.12496   1.13093
 Alpha virt. eigenvalues --    1.13413   1.13851   1.14396   1.15274   1.16196
 Alpha virt. eigenvalues --    1.16264   1.16821   1.17859   1.18385   1.18999
 Alpha virt. eigenvalues --    1.19228   1.20580   1.20729   1.21877   1.22908
 Alpha virt. eigenvalues --    1.23229   1.24358   1.26009   1.27980   1.28780
 Alpha virt. eigenvalues --    1.29472   1.30026   1.31760   1.32689   1.32988
 Alpha virt. eigenvalues --    1.34299   1.35572   1.36728   1.37190   1.37337
 Alpha virt. eigenvalues --    1.38520   1.39043   1.39670   1.40273   1.40904
 Alpha virt. eigenvalues --    1.41074   1.41337   1.41786   1.42381   1.42947
 Alpha virt. eigenvalues --    1.43210   1.43969   1.45583   1.46279   1.46936
 Alpha virt. eigenvalues --    1.47413   1.48671   1.49176   1.49935   1.50474
 Alpha virt. eigenvalues --    1.51689   1.51824   1.52137   1.52836   1.53068
 Alpha virt. eigenvalues --    1.53307   1.53759   1.55006   1.55073   1.55307
 Alpha virt. eigenvalues --    1.55686   1.56382   1.56441   1.56925   1.57217
 Alpha virt. eigenvalues --    1.57455   1.58131   1.58290   1.58664   1.58851
 Alpha virt. eigenvalues --    1.59274   1.60008   1.60155   1.60459   1.61043
 Alpha virt. eigenvalues --    1.61369   1.62027   1.62542   1.62827   1.63100
 Alpha virt. eigenvalues --    1.63457   1.63954   1.64611   1.65167   1.65311
 Alpha virt. eigenvalues --    1.65657   1.65962   1.66483   1.66670   1.66883
 Alpha virt. eigenvalues --    1.67063   1.68093   1.68722   1.69134   1.70198
[...]
 0212,-0.00000190,-0.00000269,0.00000518,-0.00000379,-0.00000336,-0.000
 00043,-0.00000055,-0.00000248,-0.00000293,0.00000046,0.00000073,0.0000
 0286,0.00000095,0.00000115,0.00000146,-0.00000230,-0.00000203,0.000001
 02,-0.00000148,0.00000090,0.00000119,-0.00000144,0.00000146,0.00000192
 ,-0.00000056,0.00000064,0.00000561,0.00000468,-0.00000938,0.00000333,-
 0.00001131,-0.00000505,0.00000382,0.00000188,0.00001120,0.00007660,0.0
 0007063,0.00000595,-0.00134656,0.00013823,-0.00037711,0.32055187,-0.00
 003254,-0.00017267,-0.00001209,0.00042537,0.00010937,0.00079680,-0.000
 26653,-0.00017816,0.00030280,0.00037378,0.00042401,0.00030176,0.000022
 48,0.00008855,-0.00003366,0.00061766,0.00030599,0.00028404,-0.00141899
 ,-0.00101955,-0.00047244,0.00041841,-0.00054436,-0.00023857,0.00013611
 ,0.00007182,0.00013533,-0.00001643,0.00009970,-0.00004197,0.00011997,-
 0.00002177,0.00007455,-0.00016725,0.00000371,-0.00004462,0.00020882,-0
 .00001068,0.00012306,-0.00006169,-0.00000891,-0.00009743,-0.00012254,0
 .00001973,-0.00000551,0.00004904,0.00000456,0.00002187,-0.00000208,0.0
 0000440,-0.00000138,-0.00000331,-0.00000399,-0.00000053,0.00000197,0.0
 0000244,0.00000328,-0.00000052,-0.00000431,0.00000002,0.00000154,-0.00
 000365,0.00000011,-0.00000013,0.00000096,-0.00000381,-0.00001226,-0.00
 002912,0.00000754,0.00006053,0.00010496,-0.00001199,0.00008557,-0.0000
 4075,-0.00022917,-0.00002267,0.00006375,0.00006177,-0.00005854,-0.0000
 5463,0.00008895,-0.00004659,-0.00010319,-0.00025763,0.00026464,-0.0000
 4188,0.00007973,-0.00013593,0.00002647,0.00026346,-0.00027911,0.000127
 72,-0.00022108,0.00051601,0.00010136,0.00019141,-0.02423963,0.00341481
 ,0.00550776,0.03058101,-0.05015455,-0.00774147,-0.00017475,-0.00235887
 ,0.00047593,0.00001962,0.00001104,-0.00000065,-0.00002321,-0.00000903,
 0.00003241,-0.00000927,0.00003165,-0.00000460,0.00003052,-0.00000172,-
 0.00000355,0.00001659,-0.00002328,0.00000044,-0.00001593,-0.00002424,-
 0.00002633,0.00000642,0.00002807,-0.00000399,-0.00004817,-0.00008169,0
 .00009743,-0.00000236,0.00000227,-0.00000779,0.00000734,0.00000223,-0.
 00000376,-0.00000315,-0.00000164,-0.00000335,-0.00000605,-0.00000042,-
 0.00000131,0.00000224,0.00000214,0.00000473,-0.00000168,-0.00000041,-0
 .00000208,-0.00000295,-0.00000156,-0.00000062,-0.00000237,-0.00000038,
 0.00000077,0.00000201,0.00000060,-0.00000136,-0.00000635,-0.00002037,0
 .00000951,0.00000447,0.00000744,-0.00000922,0.00000274,-0.00000501,0.0
 0000937,0.00003610,-0.00000129,0.00004030,0.02715452,-0.00218137,-0.00
 484592,-0.03347905,0.05266453,0.00008099,0.00017502,-0.00000174,-0.000
 65941,-0.00001244,-0.00116637,-0.00002667,-0.00000115,0.00015252,-0.00
 022784,0.00018053,-0.00073590,0.00000827,-0.00003493,0.00003852,-0.000
 47340,-0.00147812,0.00044468,0.00033963,-0.00025644,0.00068090,0.00004
 784,-0.00011850,0.00028534,0.00006733,-0.00019732,0.00007451,-0.000186
 29,-0.00000503,0.00003973,0.00003863,0.00000079,0.00002894,-0.00002189
 ,0.00000719,-0.00000304,-0.00002330,0.00000951,0.00003504,0.00000927,-
 0.00001477,-0.00002464,0.00002386,-0.00001007,-0.00001222,-0.00000700,
 0.00000409,-0.00000256,0.00000191,-0.00000119,0.00000184,0.00000135,-0
 .00000107,0.00000064,0.00000227,-0.00000070,0.00000078,0.00000047,-0.0
 0000157,0.00000165,-0.00000080,-0.00000034,-0.00000027,0.00000007,0.00
 000048,0.00000097,0.00008055,0.00000642,-0.00001323,-0.00005208,0.0000
 8719,-0.00032480,0.00003342,-0.00027897,0.00016487,-0.00001289,0.00004
 686,-0.00003029,0.00001567,0.00015793,-0.00005146,0.00018096,0.0000352
 1,-0.00004936,-0.00012323,0.00001015,0.00000258,0.00003347,-0.00006446
 ,0.00000990,-0.00015399,0.00004213,-0.00005102,-0.00014877,0.00026526,
 0.00003464,0.01981813,-0.00156016,-0.00752386,0.06079985,-0.00849946,-
 0.05575071,0.00053817,0.00261275,-0.00098643,-0.00000474,-0.00000541,-
 0.00002597,0.00003450,0.00000322,-0.00005726,-0.00000178,-0.00001847,0
 .00001405,0.00011448,0.00004383,0.00006741,-0.00001469,0.00002645,0.00
 000620,-0.00000407,0.00001615,0.00001198,0.00000668,-0.00001130,-0.000
 00211,0.00001307,0.00013393,-0.00012227,-0.00001017,0.00001510,-0.0000
 1369,0.00000579,0.00000085,-0.00000438,-0.00000018,0.00000084,0.000001
 13,0.00000146,-0.00000031,-0.00000063,-0.00000175,0.00000226,-0.000001
 35,-0.00000246,-0.00000011,-0.00000210,-0.00000116,0.00000060,0.000000
 06,0.00000086,0.00000069,-0.00000087,-0.00000009,-0.00000094,-0.000001
 06,-0.00000333,-0.00001509,-0.00000773,0.00000548,-0.00000251,-0.00000
 371,0.00000515,0.00000755,0.00000823,0.00004727,0.00008304,-0.00000987
 ,0.01389483,-0.00064019,-0.00381979,-0.06752016,0.00555394,0.06162066,
 0.00004668,-0.00004299,0.00006191,-0.00086861,0.00031003,-0.00028676,0
 .00007400,-0.00021349,-0.00006415,-0.00054985,-0.00000904,0.00009074,-
 0.00001127,0.00000730,-0.00004069,0.00054619,0.00064920,-0.00039323,-0
 .00008315,0.00009188,-0.00054246,0.00007756,0.00003444,-0.00017305,-0.
 00014844,0.00011146,-0.00005172,0.00016486,-0.00002151,-0.00009978,-0.
 00005033,0.00001377,-0.00002796,0.00005144,-0.00000466,0.00000809,-0.0
 0003452,-0.00000243,-0.00004488,0.00000941,0.00000785,0.00003585,0.000
 01473,-0.00000144,0.00000862,-0.00000757,-0.00000276,-0.00000468,0.000
 00026,-0.00000214,-0.00000194,-0.00000138,-0.00000027,-0.00000007,0.00
 000027,0.00000226,-0.00000072,0.00000112,-0.00000007,-0.00000332,0.000
 00154,-0.00000120,0.00000147,0.00000108,0.00000315,0.00000112,0.000015
 68,-0.00002139,0.00003349,0.00003233,-0.00000770,0.00018202,0.00001434
 ,0.00023994,-0.00011866,-0.00000141,-0.00005440,0.00001750,-0.00001261
 ,-0.00014033,0.00005682,-0.00036234,0.00005945,0.00009167,0.00032056,0
 .00000612,0.00001910,-0.00018474,0.00009127,0.00017307,0.00042942,-0.0
 0028998,-0.00024498,0.00003066,-0.00062108,0.00022478,0.00627597,0.000
 14881,0.01166671,-0.11510688,0.00141785,-0.12028321,-0.00083498,-0.001
 15426,0.00077048,-0.00001862,-0.00000808,0.00001904,0.00000564,-0.0000
 0341,0.00001767,0.00000718,0.00000485,0.00000293,0.00008401,-0.0000038
 8,0.00004089,0.00000006,0.00000493,-0.00000727,0.00001388,0.00000687,0
 .00001325,0.00000189,0.00001386,0.00001120,-0.00000393,-0.00008521,0.0
 0004329,0.00000533,-0.00000873,0.00000962,-0.00000496,-0.00000024,0.00
 000255,0.00000035,-0.00000037,0.00000031,0.00000056,0.00000021,0.00000
 027,-0.00000070,-0.00000236,0.00000043,0.00000107,0.00000117,0.0000028
 9,0.00000031,0.00000029,-0.00000049,-0.00000148,0.00000005,0.00000032,
 -0.00000093,0.00000106,0.00000047,0.00000112,0.00000022,0.00000495,-0.
 00001509,0.00001464,0.00000780,0.00000056,0.00001205,-0.00002017,-0.00
 015625,-0.00004344,0.00019501,0.00178653,-0.00052635,0.00491923,-0.016
 04531,-0.00029716,-0.02705933,0.12415380,-0.00002117,-0.00009369,-0.00
 000236,-0.00079152,-0.00033135,-0.00004217,-0.00016753,-0.00007415,0.0
 0051407,-0.00075436,0.00036803,-0.00049308,0.00001455,0.00006995,-0.00
 000452,-0.00088404,-0.00025978,-0.00006365,0.00135548,-0.00038509,0.00
 128315,-0.00058076,0.00021499,-0.00031336,0.00038974,-0.00010278,0.000
 15799,-0.00023703,0.00011836,0.00029310,0.00009622,-0.00002222,0.00004
 641,-0.00013048,0.00002768,-0.00004133,0.00018550,-0.00002741,0.000093
 96,-0.00005426,0.00000330,-0.00007849,-0.00011144,0.00001882,-0.000001
 68,0.00004472,-0.00000067,0.00002018,-0.00000392,0.00000491,-0.0000008
 7,-0.00000276,-0.00000167,0.00000048,-0.00000330,0.00000212,0.00000023
 ,-0.00000018,-0.00000151,0.00000229,-0.00000181,0.00000059,-0.00000311
 ,-0.00000016,-0.00000224,-0.00000427,-0.00024103,0.00000044,-0.0002493
 8,0.00026430,-0.00007243,-0.00015392,0.00024631,-0.00009177,-0.0001389
 9,-0.00005691,0.00009319,0.00005557,-0.00007591,-0.00003031,0.00008385
 ,-0.00027495,0.00023535,0.00016056,-0.00011905,-0.00005152,-0.00011406
 ,0.00007444,0.00004915,-0.00023419,0.00015245,-0.00023596,-0.00003358,
 -0.00022265,-0.00082674,-0.00093511,0.01295403,-0.00030954,0.02100948,
 0.00203235,-0.04492188,0.00361313,0.00007636,-0.00143182,-0.00027557,0
 .00000637,-0.00000587,0.00001599,0.00000718,-0.00001016,0.00004048,0.0
 0000075,0.00002026,-0.00001200,0.00001657,0.00000112,-0.00000353,0.000
 02026,-0.00002121,-0.00000134,-0.00001046,-0.00002932,-0.00002855,0.00
 001811,0.00001191,-0.00000384,-0.00004694,0.00001203,-0.00002281,-0.00
 000600,-0.00000128,-0.00000636,0.00000726,-0.00000252,-0.00000389,-0.0
 0000201,-0.00000160,-0.00000407,-0.00000617,0.00000049,0.00000049,0.00
 000375,0.00000082,0.00000384,0.00000125,-0.00000166,-0.00000071,-0.000
 00032,-0.00000186,0.00000011,0.00000004,-0.00000121,0.00000124,0.00000
 265,0.00000021,-0.00000047,0.00000634,-0.00000780,-0.00000768,-0.00002
 530,-0.00001487,0.00001576,0.00000871,0.00001208,0.00001988,-0.0002265
 3,-0.00017055,0.00017624,-0.01567652,0.00140426,-0.02327464,0.00245515
 ,-0.00079638,0.00357033,0.00028390,0.04751243,0.00000500,0.00012716,-0
 .00003491,0.00108869,-0.00014025,0.00017548,-0.00027710,0.00026543,0.0
 0030364,0.00072377,0.00044433,-0.00067307,-0.00001166,-0.00003214,-0.0
 0004470,0.00058440,-0.00182555,0.00019545,-0.00065660,0.00003774,-0.00
 034070,0.00014969,0.00018884,0.00008500,-0.00001515,-0.00006246,-0.000
 03064,0.00002696,0.00003572,0.00000240,-0.00000742,0.00000496,-0.00000
 669,-0.00000182,-0.00000464,-0.00000029,0.00002134,-0.00000457,-0.0000
 0867,-0.00000738,0.00000055,0.00000600,-0.00001754,0.00000307,0.000005
 77,0.00000721,-0.00000015,0.00000100,0.,-0.00000240,-0.00000241,-0.000
 00130,-0.00000113,0.00000057,-0.00000012,0.00000189,0.00000105,0.00000
 027,0.00000006,-0.00000240,0.00000198,-0.00000080,0.00000021,-0.000000
 96,0.00000245,-0.00000028,0.00003257,-0.00000880,0.00002004,-0.0000626
 8,0.00009085,0.00005406,-0.00008620,0.00000933,-0.00005732,0.00002129,
 -0.00000960,0.00001429,0.00002017,0.00000386,0.00001142,0.00006621,0.0
 0011009,-0.00008013,0.00029649,-0.00000218,-0.00012984,-0.00008673,0.0
 0011153,0.00028239,-0.00005763,-0.00055962,-0.00015001,-0.00026511,-0.
 00101162,0.00012810,-0.00672933,0.00235320,-0.01691023,-0.12216570,0.0
 0164545,-0.23988406,0.00027895,0.00215910,-0.00025889,0.00000873,-0.00
 000272,-0.00002188,0.00001740,0.00001446,-0.00005700,-0.00001549,-0.00
 002599,0.00000012,-0.00006418,0.00004747,-0.00002909,-0.00001349,0.000
 03064,0.00000280,0.00000973,0.00003671,0.00003978,-0.00001114,0.000007
 56,-0.00000542,0.00001579,-0.00001059,0.00001179,0.00000287,0.00000020
 ,0.00000050,-0.00000051,0.00000027,0.00000035,-0.00000026,-0.00000052,
 -0.00000050,-0.00000098,0.,0.00000011,0.00000025,-0.00000109,0.0000014
 5,0.00000044,0.00000085,0.00000159,-0.00000031,-0.00000026,-0.00000043
 ,-0.00000090,-0.00000010,0.00000039,0.00000027,0.00000063,0.,-0.000008
 03,-0.00001618,0.00000385,0.00000433,-0.00000996,0.00000252,-0.0000016
 7,0.00001502,0.00000440,0.00009988,0.00028594,0.00010544,-0.00692116,0
 .00081522,-0.01095138,0.00410167,-0.00034110,0.00666866,0.13048124,-0.
 00482181,0.26182556,-0.00207031,-0.00140725,-0.00216773,0.00448582,-0.
 00898808,-0.00154745,0.00448363,-0.00178671,0.00359653,-0.00116975,-0.
 00038782,0.00009335,-0.00054635,0.00009635,-0.00036504,0.00329990,0.00
 062794,0.00478421,0.00052366,0.00058365,-0.00011209,-0.00012566,0.0001
 0638,0.00001156,0.00011506,-0.00002775,0.00004765,-0.00007414,0.000034
 97,0.00008399,0.00003346,-0.00001163,0.00002941,-0.00004917,0.00000124
 ,-0.00001750,0.00004722,0.00000228,0.00005004,-0.00001336,-0.00000849,
 -0.00004117,-0.00002207,0.00000098,-0.00000834,0.00000945,0.00000355,0
 .00000593,0.00000160,0.00000100,0.00000262,-0.00000014,0.00000150,-0.0
 0000009,0.00000170,-0.00000413,0.00000282,-0.00000297,0.00000012,0.000
 00482,0.00000207,0.00000103,-0.00000195,-0.00000304,-0.00000323,-0.000
 00220,-0.00006290,0.00002004,-0.00004724,0.00000407,-0.00004275,-0.000
 07284,0.00008822,0.00000077,-0.00003128,-0.00002227,0.00001436,0.00000
 801,-0.00002721,-0.00002044,0.00001573,-0.00003858,-0.00007993,0.00007
 419,0.00002452,0.00000460,0.00002496,-0.00003350,0.00001120,0.00005038
 ,-0.00005414,0.00001886,-0.00003806,-0.00002577,-0.00010463,0.00012618
 ,0.00149833,0.01299724,0.00387777,-0.00313717,0.00142303,-0.00215799,-
 0.04574379,0.03840985,0.01885239,0.00009669,0.00012754,-0.00064953,-0.
 00014888,0.00010585,0.00021363,-0.00024864,0.00077382,0.00010054,0.000
 30200,-0.00049881,-0.00011310,0.00000375,0.00004072,0.00008796,0.00009
 005,-0.00004545,-0.00008442,0.00000259,0.00003488,0.00003937,0.0000061
 1,0.00000304,0.00000629,-0.00000379,0.00000648,-0.00000474,0.00000378,
 0.00000236,-0.00000235,-0.00000133,0.00000043,-0.00000012,-0.00000120,
 -0.00000004,-0.00000061,0.00000090,0.00000326,-0.00000055,-0.00000214,
 -0.00000122,-0.00000370,-0.00000085,-0.00000018,0.00000036,0.00000121,
 0.00000049,-0.00000118,0.00000054,-0.00000087,-0.00000131,-0.00000329,
 -0.00000280,-0.00000145,0.00000590,0.00001804,0.00000020,0.00000345,-0
 .00000174,-0.00000116,0.00000612,-0.00001317,-0.00000118,0.00015299,-0
 .00068584,0.00018922,-0.00009145,-0.00020628,0.00048977,0.00033499,0.0
 0001074,-0.00057906,0.03809404,0.00096712,0.00081153,-0.00111684,0.004
 69790,-0.01801737,-0.00828390,-0.00177523,-0.00127485,0.00344166,-0.00
 029863,0.00033913,0.00053779,-0.00000870,0.00000093,-0.00002664,0.0005
 0565,0.00168263,-0.00089053,-0.00012923,-0.00015781,0.00032033,0.00004
 638,0.00000190,-0.00009233,-0.00006967,0.00002807,-0.00003016,0.000052
 92,-0.00001374,-0.00005370,-0.00005476,0.00001172,-0.00003102,0.000078
 12,-0.00001056,0.00002105,-0.00011221,0.00000866,-0.00005704,0.0000358
 7,0.00000640,0.00004996,0.00006918,-0.00001026,0.00000130,-0.00003044,
 -0.00000076,-0.00001377,0.00000120,0.00000291,0.00000413,0.00000117,0.
 00000142,-0.00000299,0.00000117,-0.00000016,-0.00000481,0.00000225,-0.
 00000168,-0.00000217,-0.00000291,-0.00000237,0.00000391,0.00000590,0.0
 0000101,0.00000459,0.00003628,-0.00001343,0.00000654,0.00006326,-0.000
 00559,0.00000162,-0.00005013,-0.00000531,0.00010028,0.00001180,-0.0000
 2096,-0.00003016,0.00002685,0.00002850,-0.00004152,-0.00003153,0.00000
 567,-0.00004786,-0.00002527,-0.00000261,-0.00001927,0.00003325,0.00000
 212,-0.00006622,0.00005064,0.00001323,0.00003111,0.00006074,0.00001989
 ,-0.00004630,-0.00036955,-0.00534643,0.00045044,-0.00072441,0.00090474
 ,0.00115175,0.03863756,-0.31036340,-0.06943130,-0.00020957,-0.00005190
 ,0.00027377,-0.00006834,0.00035152,-0.00009805,-0.00065608,0.00028377,
 0.00079573,0.00014489,-0.00098979,-0.00035757,0.00003170,-0.00000916,-
 0.00002182,0.00001352,-0.00001583,-0.00004677,-0.00000302,0.00002975,0
 .00001827,-0.00002867,-0.00001975,-0.00000951,-0.00000113,-0.00000504,
 0.00000254,-0.00000392,-0.00000094,0.00000110,0.00000201,0.00000034,0.
 00000150,0.00000361,0.00000032,0.00000045,-0.00000209,-0.00000201,-0.0
 0000325,0.00000064,0.00000073,0.00000093,0.00000114,0.00000077,0.00000
 002,-0.00000168,0.00000005,0.00000078,-0.00000211,0.00000059,0.0000010
 5,0.00000493,-0.00000176,0.00000144,-0.00000312,-0.00000251,-0.0000035
 8,-0.00000455,-0.00000546,-0.00000819,0.00002665,-0.00002803,0.0000199
 3,0.00021109,0.00059444,-0.00043041,-0.00003051,0.00017560,0.00013073,
 0.00003147,0.00015832,0.00004567,-0.04115935,0.33091284,-0.00235533,0.
 00045333,0.00002463,-0.00214160,0.01757300,0.00774730,0.00372217,0.002
 86934,-0.00055443,-0.00004679,0.00054235,-0.00109512,-0.00033928,0.000
 03094,-0.00007853,0.00455546,-0.00073439,-0.00276997,0.00008999,-0.001
 18624,0.00045153,0.00010595,0.00006931,-0.00016976,-0.00010007,-0.0000
 3357,-0.00004033,0.00005553,-0.00000110,-0.00007920,-0.00002503,0.0000
 0846,-0.00001410,0.00004323,-0.00000915,0.00001327,-0.00006780,0.00000
 869,-0.00002415,0.00002125,-0.00000029,0.00002054,0.00004353,-0.000007
 27,-0.00000283,-0.00001740,-0.00000020,-0.00000673,0.00000125,0.000000
 17,0.00000270,0.00000104,0.00000150,-0.00000051,0.00000089,-0.00000165
 ,-0.00000106,-0.00000095,0.00000030,0.00000141,-0.00000028,0.00000037,
 0.00000045,0.00000044,-0.00000055,0.00000095,0.00004369,-0.00001495,0.
 00000947,0.00012006,0.00010365,-0.00003316,-0.00002419,-0.00002343,0.0
 0010320,0.00000122,-0.00001341,-0.00002359,0.00001739,0.00003792,-0.00
 003587,-0.00005718,0.00009217,-0.00001003,-0.00007646,-0.00000283,-0.0
 0004267,0.00005817,-0.00000085,-0.00013690,0.00012942,-0.00003869,0.00
 009544,-0.00003320,-0.00002698,-0.00013965,0.00390454,-0.02496293,-0.0
 0372182,-0.00246907,-0.00169530,-0.00024407,0.01898148,-0.06878310,-0.
 06949621,-0.00001741,0.00011615,-0.00044343,-0.00007797,-0.00022883,0.
 00012850,0.00032855,-0.00008923,0.00023007,-0.00011222,0.00093319,0.00
 036974,-0.00001496,0.00004142,0.00006071,0.00004597,0.00001024,-0.0000
 1950,-0.00000115,-0.00008076,0.00001506,-0.00000515,0.00000031,0.00000
 264,0.00000061,-0.00000011,0.00000325,-0.00000285,-0.00000086,0.000000
 64,0.00000081,0.00000077,0.00000124,0.00000227,0.00000002,0.00000014,-
 0.00000086,0.00000047,-0.00000217,-0.00000046,-0.00000035,-0.00000071,
 0.00000083,0.00000063,0.00000047,0.00000080,0.00000040,-0.00000069,-0.
 00000078,-0.00000060,-0.00000008,0.00000182,-0.00002474,0.00000785,-0.
 00000868,-0.00001068,0.00000049,-0.00000406,-0.00000503,-0.00001160,0.
 00000630,-0.00002039,0.00001345,0.00043693,0.00085961,-0.00015161,-0.0
 0015869,0.00019989,0.00040427,0.00025272,0.00019653,-0.00027528,-0.024
 81445,0.07384733,0.06991633\\0.00000007,-0.00000033,0.00000112,-0.0000
 0031,-0.00000318,0.00000030,-0.00000010,-0.00000013,0.00000292,0.00000
 030,0.00000352,-0.00000640,0.00000140,0.00000008,-0.00000070,-0.000004
 29,-0.00000631,0.00000640,0.00000988,-0.00000219,-0.00000158,-0.000011
 40,-0.00000512,0.00000294,0.00000752,0.00000281,-0.00000385,-0.0000067
 8,-0.00000002,0.00000893,0.00000043,-0.00000199,-0.00000140,-0.0000013
 5,0.00000040,-0.00000125,-0.00000007,-0.00000442,0.00000180,0.00000085
 ,0.00000189,-0.00000110,0.00000150,0.00000816,-0.00000255,0.00000093,-
 0.00000587,-0.00000069,0.00000518,0.00000190,-0.00000804,0.00000328,0.
 00001074,0.00000610,-0.00000910,-0.00000966,0.00000631,0.00000326,-0.0
 0000199,-0.00001233,0.00000448,0.00001243,0.00000498,-0.00001038,-0.00
 001120,0.00000339,-0.00000407,0.00000009,-0.00000451,0.00000943,0.0000
 0455,0.00000358,-0.00000884,0.00000397,-0.00000448,0.00000046,0.000000
 81,0.00000045,0.00000102,-0.00000023,0.00000109,0.00000895,-0.00000594
 ,-0.00000147,-0.00000798,0.00000147,0.00000078,0.00000360,-0.00000050,
 -0.00000851,0.00000518,0.00000044,0.00000797,-0.00000702,0.00000420,-0
 .00000007,0.00000431,0.00000035,-0.00000127,-0.00000143,0.00000030,-0.
 00000082,0.00000037,0.00000151,-0.00000074,-0.00000013,-0.00000090,0.0
 0000032,0.00000033,-0.00000092,0.00000022,0.00000022,-0.00000126,0.000
 00069,-0.00000032,-0.00000067,-0.00000033,-0.00000058,-0.00000120,0.00
 000088,0.00000041,-0.00000021,0.00000042,0.00000027,-0.00000069,-0.000
 00008,-0.00000051,-0.00000026,-0.00000040,0.00000077,0.00000057,-0.000
 00032,0.00000105,0.00000089,-0.00000048,0.00000048,0.00000159,-0.00000
 044,-0.00000107,-0.00000082,0.00000072,-0.00000140,-0.00000303,-0.0000
 0209,0.00000232,0.00000163,-0.00000111,-0.00000034,0.00000056,0.000002
 09,-0.00000106,-0.00000019,-0.00000093,0.00000189,0.00000106,-0.000000
 79,0.00000030,0.00000168,-0.00000034,-0.00000030,0.00000070,0.00000011
 ,-0.00000040,0.00000012,0.00000101,-0.00000028,-0.00000003,-0.00000081
 ,-0.00000048,-0.00000023,0.00000077,-0.00000045,0.00000075,0.00000120,
 -0.00000019,0.00000095,0.00000153,0.00000017,-0.00000063,0.00000087\\\
 @
 The archive entry for this job was punched.


 TIME IS IN FACT THE HERO OF THE PLOT. THE TIME
 WITH WHICH WE HAVE TO DEAL IS OF THE ORDER OF TWO
 BILLION YEARS...GIVEN SO MUCH TIME, THE "IMPOSSIBLE"
 BECOMES POSSIBLE, THE POSSIBLE PROBABLE, THE PROBABLE
 VIRTUALLY CERTAIN.  ONE HAS ONLY TO WAIT, TIME
 ITSELF PERFORMS THE MIRACLES.
 "ORIGIN OF LIFE" LECTURES, GEORGE WALD, 1954
 Job cpu time:       3 days 13 hours 37 minutes 23.8 seconds.
 Elapsed time:       0 days  3 hours 20 minutes  8.1 seconds.
 File lengths (MBytes):  RWF=   4133 Int=      0 D2E=      0 Chk=     82 Scr=      1
 Normal termination of Gaussian 16 at Tue Dec  5 09:58:57 2023.
