 Entering Gaussian System, Link 0=g16
 Input=/home/exlonk/in_progress/4076.inp
 Output=/home/exlonk/in_progress/4076.log
 Initial command:
 /opt/gaussian/g16-c01/g16/l1.exe "/lustre/tmp/slurm/2182645/Gau-195642.inp" -scrdir="/lustre/tmp/slurm/2182645/"
 Default CPUs for threads: 0-4,7-9,13-15,19-20,24-28,31-33,37-39,43-44
 Default is to use a total of  26 processors:
                               26 via shared-memory
                                1 via Linda
 Entering Link 1 = /opt/gaussian/g16-c01/g16/l1.exe PID=    195643.
  
 Copyright (c) 1988-2019, Gaussian, Inc.  All Rights Reserved.
  
 This is part of the Gaussian(R) 16 program.  It is based on
 the Gaussian(R) 09 system (copyright 2009, Gaussian, Inc.),
 the Gaussian(R) 03 system (copyright 2003, Gaussian, Inc.),
 the Gaussian(R) 98 system (copyright 1998, Gaussian, Inc.),
 the Gaussian(R) 94 system (copyright 1995, Gaussian, Inc.),
 the Gaussian 92(TM) system (copyright 1992, Gaussian, Inc.),
 the Gaussian 90(TM) system (copyright 1990, Gaussian, Inc.),
 the Gaussian 88(TM) system (copyright 1988, Gaussian, Inc.),
 the Gaussian 86(TM) system (copyright 1986, Carnegie Mellon
 University), and the Gaussian 82(TM) system (copyright 1983,
 Carnegie Mellon University). Gaussian is a federally registered
 trademark of Gaussian, Inc.
  
 This software contains proprietary and confidential information,
 including trade secrets, belonging to Gaussian, Inc.
  
 This software is provided under written license and may be
 used, copied, transmitted, or stored only in accord with that
 written license.
  
 The following legend is applicable only to US Government
 contracts under FAR:
  
                    RESTRICTED RIGHTS LEGEND
  
 Use, reproduction and disclosure by the US Government is
 subject to restrictions as set forth in subparagraphs (a)
 and (c) of the Commercial Computer Software - Restricted
 Rights clause in FAR 52.227-19.
  
 Gaussian, Inc.
 340 Quinnipiac St., Bldg. 40, Wallingford CT 06492
  
  
 ---------------------------------------------------------------
 Warning -- This program may not be used in any manner that
 competes with the business of Gaussian, Inc. or will provide
 assistance to any competitor of Gaussian, Inc.  The licensee
 of this program is prohibited from giving any competitor of
 Gaussian, Inc. access to this program.  By using this program,
 the user acknowledges that Gaussian, Inc. is engaged in the
 business of creating and licensing software in the field of
 computational chemistry and represents and warrants to the
 licensee that it is not a competitor of Gaussian, Inc. and that
 it will not use this program in any manner prohibited above.
 ---------------------------------------------------------------
  

 Cite this work as:
 Gaussian 16, Revision C.01,
 M. J. Frisch, G. W. Trucks, H. B. Schlegel, G. E. Scuseria, 
 M. A. Robb, J. R. Cheeseman, G. Scalmani, V. Barone, 
 G. A. Petersson, H. Nakatsuji, X. Li, M. Caricato, A. V. Marenich, 
 J. Bloino, B. G. Janesko, R. Gomperts, B. Mennucci, H. P. Hratchian, 
 J. V. Ortiz, A. F. Izmaylov, J. L. Sonnenberg, D. Williams-Young, 
 F. Ding, F. Lipparini, F. Egidi, J. Goings, B. Peng, A. Petrone, 
 T. Henderson, D. Ranasinghe, V. G. Zakrzewski, J. Gao, N. Rega, 
 G. Zheng, W. Liang, M. Hada, M. Ehara, K. Toyota, R. Fukuda, 
 J. Hasegawa, M. Ishida, T. Nakajima, Y. Honda, O. Kitao, H. Nakai, 
 T. Vreven, K. Throssell, J. A. Montgomery, Jr., J. E. Peralta, 
 F. Ogliaro, M. J. Bearpark, J. J. Heyd, E. N. Brothers, K. N. Kudin, 
 V. N. Staroverov, T. A. Keith, R. Kobayashi, J. Normand, 
 K. Raghavachari, A. P. Rendell, J. C. Burant, S. S. Iyengar, 
 J. Tomasi, M. Cossi, J. M. Millam, M. Klene, C. Adamo, R. Cammi, 
 J. W. Ochterski, R. L. Martin, K. Morokuma, O. Farkas, 
 J. B. Foresman, and D. J. Fox, Gaussian, Inc., Wallingford CT, 2019.
 
 ******************************************
 Gaussian 16:  EM64L-G16RevC.01  3-Jul-2019
                 4-Dec-2023 
 ******************************************
 %nproc=26
 Will use up to   26 processors via shared memory.
 %mem=16GB
 %chk=/home/exlonk/in_progress/4076.chk
 ------------------------------
 #p MN15/6-311++G(d,p) opt freq
 ------------------------------
 1/18=20,19=15,26=3,38=1/1,3;
 2/9=110,12=2,17=6,18=5,40=1/2;
 3/5=4,6=6,7=1111,11=2,25=1,30=1,71=1,74=-73/1,2,3;
 4//1;
 5/5=2,38=5/2;
 6/7=2,8=2,9=2,10=2,28=1/1;
 7//1,2,3,16;
 1/18=20,19=15,26=3/3(2);
 2/9=110/2;
 99//99;
 2/9=110/2;
 3/5=4,6=6,7=1111,11=2,25=1,30=1,71=1,74=-73/1,2,3;
 4/5=5,16=3,69=1/1;
 5/5=2,38=5/2;
 7//1,2,3,16;
 1/18=20,19=15,26=3/3(-5);
 2/9=110/2;
 6/7=2,8=2,9=2,10=2,19=2,28=1/1;
 99/9=1/99;
 Leave Link    1 at Mon Dec  4 22:28:52 2023, MaxMem=  2147483648 cpu:              10.2 elap:               0.6
 (Enter /opt/gaussian/g16-c01/g16/l101.exe)
 ---------------
 name file: 4076
 ---------------
 Symbolic Z-matrix:
 Charge =  0 Multiplicity = 1
 C                     4.78539   2.55977  -2.15359 
 O                     4.58515   2.03646  -0.84897 
 C                     3.5077    1.21126  -0.65019 
 C                     2.5976    0.84578  -1.64077 
 C                     1.52417  -0.00385  -1.34264 
 C                     1.32736  -0.50809  -0.04907 
 N                     0.22279  -1.36409   0.24441 
 C                    -0.01028  -2.02977   1.45285 
 O                     0.59657  -2.01233   2.50812 
 C                    -1.1848   -2.88586   1.25787 
 C                    -1.76348  -3.77441   2.14623 
 C                    -2.86726  -4.50322   1.7019 
 C                    -3.35729  -4.33059   0.39525 
 C                    -2.75336  -3.42605  -0.48485 
 C                    -1.65973  -2.70269  -0.03435 
 C                    -0.83682  -1.65848  -0.73567 
 C                    -1.73178  -0.46592  -1.12617 
 O                    -2.52544  -0.50809  -2.06049 
 O                    -1.56429   0.59237  -0.29052 
 C                    -2.30753   1.82442  -0.46411 
 C                    -3.81074   1.59453  -0.28002 
 C                    -1.98622   2.47935  -1.81144 
 C                    -1.80587   2.74165   0.66102 
 C                     2.25299  -0.13632   0.93649 
 C                     3.33548   0.71253   0.65216 
 O                     4.26922   1.11473   1.57732 
 C                     4.16422   0.58774   2.89301 
 H                     4.96738   1.75834  -2.87711 
 H                     3.94279   3.18772  -2.46126 
 H                     5.67815   3.19203  -2.12724 
 H                     2.69263   1.20146  -2.66131 
 H                     0.86273  -0.25424  -2.16586 
 H                    -1.36582  -3.89992   3.14822 
 H                    -3.3514   -5.21252   2.36978 
 H                    -4.22007  -4.90736   0.06686 
 H                    -3.14567  -3.29286  -1.48987 
 H                    -0.37335  -2.08654  -1.63159 
 H                    -4.23559   0.99859  -1.09333 
 H                    -4.00924   1.04583   0.64757 
 H                    -4.35791   2.54284  -0.24807 
 H                    -0.90287   2.55495  -1.95845 
 H                    -2.37643   1.89755  -2.65192 
 H                    -2.41796   3.48369  -1.87928 
 H                    -2.2973    3.71992   0.63847 
 H                    -1.98362   2.28701   1.64268 
 H                    -0.72301   2.89568   0.58422 
 H                     2.12607  -0.49779   1.94817 
 H                     4.99916   0.98461   3.47861 
 H                     4.25038  -0.50387   2.89136 
 H                     3.23717   0.91407   3.37558 
 
 ITRead=  0  0  0  0  0  0  0  0  0  0  0  0  0  0  0  0  0  0  0  0
 ITRead=  0  0  0  0  0  0  0  0  0  0  0  0  0  0  0  0  0  0  0  0
 ITRead=  0  0  0  0  0  0  0  0  0  0
 MicOpt= -1 -1 -1 -1 -1 -1 -1 -1 -1 -1 -1 -1 -1 -1 -1 -1 -1 -1 -1 -1
 MicOpt= -1 -1 -1 -1 -1 -1 -1 -1 -1 -1 -1 -1 -1 -1 -1 -1 -1 -1 -1 -1
 MicOpt= -1 -1 -1 -1 -1 -1 -1 -1 -1 -1
 NAtoms=     50 NQM=       50 NQMF=       0 NMMI=      0 NMMIF=      0
                NMic=       0 NMicF=      0.
                    Isotopes and Nuclear Properties:
 (Nuclear quadrupole moments (NQMom) in fm**2, nuclear magnetic moments (NMagM)
  in nuclear magnetons)

  Atom         1           2           3           4           5           6           7           8           9          10
 IAtWgt=          12          16          12          12          12          12          14          12          16          12
 AtmWgt=  12.0000000  15.9949146  12.0000000  12.0000000  12.0000000  12.0000000  14.0030740  12.0000000  15.9949146  12.0000000
 NucSpn=           0           0           0           0           0           0           2           0           0           0
 AtZEff=  -0.0000000  -0.0000000  -0.0000000  -0.0000000  -0.0000000  -0.0000000  -0.0000000  -0.0000000  -0.0000000  -0.0000000
 NQMom=    0.0000000   0.0000000   0.0000000   0.0000000   0.0000000   0.0000000   2.0440000   0.0000000   0.0000000   0.0000000
 NMagM=    0.0000000   0.0000000   0.0000000   0.0000000   0.0000000   0.0000000   0.4037610   0.0000000   0.0000000   0.0000000
 AtZNuc=   6.0000000   8.0000000   6.0000000   6.0000000   6.0000000   6.0000000   7.0000000   6.0000000   8.0000000   6.0000000

  Atom        11          12          13          14          15          16          17          18          19          20
 IAtWgt=          12          12          12          12          12          12          12          16          16          12
 AtmWgt=  12.0000000  12.0000000  12.0000000  12.0000000  12.0000000  12.0000000  12.0000000  15.9949146  15.9949146  12.0000000
 NucSpn=           0           0           0           0           0           0           0           0           0           0
 AtZEff=  -0.0000000  -0.0000000  -0.0000000  -0.0000000  -0.0000000  -0.0000000  -0.0000000  -0.0000000  -0.0000000  -0.0000000
 NQMom=    0.0000000   0.0000000   0.0000000   0.0000000   0.0000000   0.0000000   0.0000000   0.0000000   0.0000000   0.0000000
 NMagM=    0.0000000   0.0000000   0.0000000   0.0000000   0.0000000   0.0000000   0.0000000   0.0000000   0.0000000   0.0000000
 AtZNuc=   6.0000000   6.0000000   6.0000000   6.0000000   6.0000000   6.0000000   6.0000000   8.0000000   8.0000000   6.0000000

  Atom        21          22          23          24          25          26          27          28          29          30
 IAtWgt=          12          12          12          12          12          16          12           1           1           1
 AtmWgt=  12.0000000  12.0000000  12.0000000  12.0000000  12.0000000  15.9949146  12.0000000   1.0078250   1.0078250   1.0078250
 NucSpn=           0           0           0           0           0           0           0           1           1           1
 AtZEff=  -0.0000000  -0.0000000  -0.0000000  -0.0000000  -0.0000000  -0.0000000  -0.0000000  -0.0000000  -0.0000000  -0.0000000
 NQMom=    0.0000000   0.0000000   0.0000000   0.0000000   0.0000000   0.0000000   0.0000000   0.0000000   0.0000000   0.0000000
 NMagM=    0.0000000   0.0000000   0.0000000   0.0000000   0.0000000   0.0000000   0.0000000   2.7928460   2.7928460   2.7928460
 AtZNuc=   6.0000000   6.0000000   6.0000000   6.0000000   6.0000000   8.0000000   6.0000000   1.0000000   1.0000000   1.0000000

  Atom        31          32          33          34          35          36          37          38          39          40
 IAtWgt=           1           1           1           1           1           1           1           1           1           1
 AtmWgt=   1.0078250   1.0078250   1.0078250   1.0078250   1.0078250   1.0078250   1.0078250   1.0078250   1.0078250   1.0078250
 NucSpn=           1           1           1           1           1           1           1           1           1           1
 AtZEff=  -0.0000000  -0.0000000  -0.0000000  -0.0000000  -0.0000000  -0.0000000  -0.0000000  -0.0000000  -0.0000000  -0.0000000
 NQMom=    0.0000000   0.0000000   0.0000000   0.0000000   0.0000000   0.0000000   0.0000000   0.0000000   0.0000000   0.0000000
 NMagM=    2.7928460   2.7928460   2.7928460   2.7928460   2.7928460   2.7928460   2.7928460   2.7928460   2.7928460   2.7928460
 AtZNuc=   1.0000000   1.0000000   1.0000000   1.0000000   1.0000000   1.0000000   1.0000000   1.0000000   1.0000000   1.0000000

  Atom        41          42          43          44          45          46          47          48          49          50
 IAtWgt=           1           1           1           1           1           1           1           1           1           1
 AtmWgt=   1.0078250   1.0078250   1.0078250   1.0078250   1.0078250   1.0078250   1.0078250   1.0078250   1.0078250   1.0078250
 NucSpn=           1           1           1           1           1           1           1           1           1           1
 AtZEff=  -0.0000000  -0.0000000  -0.0000000  -0.0000000  -0.0000000  -0.0000000  -0.0000000  -0.0000000  -0.0000000  -0.0000000
 NQMom=    0.0000000   0.0000000   0.0000000   0.0000000   0.0000000   0.0000000   0.0000000   0.0000000   0.0000000   0.0000000
 NMagM=    2.7928460   2.7928460   2.7928460   2.7928460   2.7928460   2.7928460   2.7928460   2.7928460   2.7928460   2.7928460
 AtZNuc=   1.0000000   1.0000000   1.0000000   1.0000000   1.0000000   1.0000000   1.0000000   1.0000000   1.0000000   1.0000000
 Leave Link  101 at Mon Dec  4 22:28:52 2023, MaxMem=  2147483648 cpu:               8.6 elap:               0.4
 (Enter /opt/gaussian/g16-c01/g16/l103.exe)

 GradGradGradGradGradGradGradGradGradGradGradGradGradGradGradGradGradGrad
 Berny optimization.
 Initialization pass.
                           ----------------------------
                           !    Initial Parameters    !
                           ! (Angstroms and Degrees)  !
 --------------------------                            --------------------------
 ! Name  Definition              Value          Derivative Info.                !
 --------------------------------------------------------------------------------
 ! R1    R(1,2)                  1.4198         estimate D2E/DX2                !
 ! R2    R(1,28)                 1.0949         estimate D2E/DX2                !
 ! R3    R(1,29)                 1.095          estimate D2E/DX2                !
 ! R4    R(1,30)                 1.0943         estimate D2E/DX2                !
 ! R5    R(2,3)                  1.3716         estimate D2E/DX2                !
 ! R6    R(3,4)                  1.3939         estimate D2E/DX2                !
 ! R7    R(3,25)                 1.4052         estimate D2E/DX2                !
 ! R8    R(4,5)                  1.4011         estimate D2E/DX2                !
 ! R9    R(4,31)                 1.0849         estimate D2E/DX2                !
 ! R10   R(5,6)                  1.4023         estimate D2E/DX2                !
 ! R11   R(5,32)                 1.0853         estimate D2E/DX2                !
 ! R12   R(6,7)                  1.4279         estimate D2E/DX2                !
 ! R13   R(6,24)                 1.4023         estimate D2E/DX2                !
 ! R14   R(7,8)                  1.3992         estimate D2E/DX2                !
 ! R15   R(7,16)                 1.4731         estimate D2E/DX2                !
 ! R16   R(8,9)                  1.2174         estimate D2E/DX2                !
 ! R17   R(8,10)                 1.4664         estimate D2E/DX2                !
 ! R18   R(10,11)                1.3833         estimate D2E/DX2                !
 ! R19   R(10,15)                1.3889         estimate D2E/DX2                !
 ! R20   R(11,12)                1.3953         estimate D2E/DX2                !
 ! R21   R(11,33)                1.0853         estimate D2E/DX2                !
 ! R22   R(12,13)                1.4061         estimate D2E/DX2                !
 ! R23   R(12,34)                1.0879         estimate D2E/DX2                !
 ! R24   R(13,14)                1.3991         estimate D2E/DX2                !
 ! R25   R(13,35)                1.0885         estimate D2E/DX2                !
 ! R26   R(14,15)                1.3865         estimate D2E/DX2                !
 ! R27   R(14,36)                1.0871         estimate D2E/DX2                !
 ! R28   R(15,16)                1.5031         estimate D2E/DX2                !
 ! R29   R(16,17)                1.5413         estimate D2E/DX2                !
 ! R30   R(16,37)                1.0958         estimate D2E/DX2                !
 ! R31   R(17,18)                1.2266         estimate D2E/DX2                !
 ! R32   R(17,19)                1.3588         estimate D2E/DX2                !
 ! R33   R(19,20)                1.4493         estimate D2E/DX2                !
 ! R34   R(20,21)                1.5318         estimate D2E/DX2                !
 ! R35   R(20,22)                1.5321         estimate D2E/DX2                !
 ! R36   R(20,23)                1.5359         estimate D2E/DX2                !
 ! R37   R(21,38)                1.0941         estimate D2E/DX2                !
 ! R38   R(21,39)                1.0958         estimate D2E/DX2                !
 ! R39   R(21,40)                1.0953         estimate D2E/DX2                !
 ! R40   R(22,41)                1.0959         estimate D2E/DX2                !
 ! R41   R(22,42)                1.0941         estimate D2E/DX2                !
 ! R42   R(22,43)                1.0953         estimate D2E/DX2                !
 ! R43   R(23,44)                1.095          estimate D2E/DX2                !
 ! R44   R(23,45)                1.0963         estimate D2E/DX2                !
 ! R45   R(23,46)                1.0965         estimate D2E/DX2                !
 ! R46   R(24,25)                1.4047         estimate D2E/DX2                !
 ! R47   R(24,47)                1.0818         estimate D2E/DX2                !
 ! R48   R(25,26)                1.3746         estimate D2E/DX2                !
 ! R49   R(26,27)                1.4212         estimate D2E/DX2                !
 ! R50   R(27,48)                1.0943         estimate D2E/DX2                !
 ! R51   R(27,49)                1.095          estimate D2E/DX2                !
 ! R52   R(27,50)                1.0949         estimate D2E/DX2                !
 ! A1    A(2,1,28)             111.1512         estimate D2E/DX2                !
 ! A2    A(2,1,29)             111.1632         estimate D2E/DX2                !
 ! A3    A(2,1,30)             107.8115         estimate D2E/DX2                !
 ! A4    A(28,1,29)            111.222          estimate D2E/DX2                !
 ! A5    A(28,1,30)            107.6503         estimate D2E/DX2                !
 ! A6    A(29,1,30)            107.6512         estimate D2E/DX2                !
 ! A7    A(1,2,3)              117.7542         estimate D2E/DX2                !
 ! A8    A(2,3,4)              124.5839         estimate D2E/DX2                !
 ! A9    A(2,3,25)             116.3673         estimate D2E/DX2                !
 ! A10   A(4,3,25)             119.0487         estimate D2E/DX2                !
 ! A11   A(3,4,5)              120.5302         estimate D2E/DX2                !
 ! A12   A(3,4,31)             121.6898         estimate D2E/DX2                !
 ! A13   A(5,4,31)             117.7798         estimate D2E/DX2                !
 ! A14   A(4,5,6)              121.4589         estimate D2E/DX2                !
 ! A15   A(4,5,32)             116.4512         estimate D2E/DX2                !
 ! A16   A(6,5,32)             122.0882         estimate D2E/DX2                !
 ! A17   A(5,6,7)              120.9131         estimate D2E/DX2                !
 ! A18   A(5,6,24)             117.4119         estimate D2E/DX2                !
 ! A19   A(7,6,24)             121.6748         estimate D2E/DX2                !
 ! A20   A(6,7,8)              126.2686         estimate D2E/DX2                !
 ! A21   A(6,7,16)             122.6485         estimate D2E/DX2                !
 ! A22   A(8,7,16)             111.0825         estimate D2E/DX2                !
 ! A23   A(7,8,9)              131.2052         estimate D2E/DX2                !
 ! A24   A(7,8,10)             107.2369         estimate D2E/DX2                !
 ! A25   A(9,8,10)             121.5247         estimate D2E/DX2                !
 ! A26   A(8,10,11)            128.6566         estimate D2E/DX2                !
 ! A27   A(8,10,15)            108.6997         estimate D2E/DX2                !
 ! A28   A(11,10,15)           122.6273         estimate D2E/DX2                !
 ! A29   A(10,11,12)           117.511          estimate D2E/DX2                !
 ! A30   A(10,11,33)           120.924          estimate D2E/DX2                !
 ! A31   A(12,11,33)           121.5641         estimate D2E/DX2                !
 ! A32   A(11,12,13)           120.4953         estimate D2E/DX2                !
 ! A33   A(11,12,34)           119.8071         estimate D2E/DX2                !
 ! A34   A(13,12,34)           119.6973         estimate D2E/DX2                !
 ! A35   A(12,13,14)           120.8957         estimate D2E/DX2                !
 ! A36   A(12,13,35)           119.4399         estimate D2E/DX2                !
 ! A37   A(14,13,35)           119.6642         estimate D2E/DX2                !
 ! A38   A(13,14,15)           118.2553         estimate D2E/DX2                !
 ! A39   A(13,14,36)           120.3317         estimate D2E/DX2                !
 ! A40   A(15,14,36)           121.4094         estimate D2E/DX2                !
 ! A41   A(10,15,14)           120.2149         estimate D2E/DX2                !
 ! A42   A(10,15,16)           109.7866         estimate D2E/DX2                !
 ! A43   A(14,15,16)           129.9923         estimate D2E/DX2                !
 ! A44   A(7,16,15)            102.8387         estimate D2E/DX2                !
 ! A45   A(7,16,17)            115.5693         estimate D2E/DX2                !
 ! A46   A(7,16,37)            108.5303         estimate D2E/DX2                !
 ! A47   A(15,16,17)           109.7448         estimate D2E/DX2                !
 ! A48   A(15,16,37)           109.9778         estimate D2E/DX2                !
 ! A49   A(17,16,37)           109.9193         estimate D2E/DX2                !
 ! A50   A(16,17,18)           122.8248         estimate D2E/DX2                !
 ! A51   A(16,17,19)           112.0388         estimate D2E/DX2                !
 ! A52   A(18,17,19)           125.0969         estimate D2E/DX2                !
 ! A53   A(17,19,20)           121.6833         estimate D2E/DX2                !
 ! A54   A(19,20,21)           111.1785         estimate D2E/DX2                !
 ! A55   A(19,20,22)           111.1714         estimate D2E/DX2                !
 ! A56   A(19,20,23)           104.6218         estimate D2E/DX2                !
 ! A57   A(21,20,22)           112.0636         estimate D2E/DX2                !
 ! A58   A(21,20,23)           108.7915         estimate D2E/DX2                !
 ! A59   A(22,20,23)           108.689          estimate D2E/DX2                !
 ! A60   A(20,21,38)           111.9297         estimate D2E/DX2                !
 ! A61   A(20,21,39)           110.7711         estimate D2E/DX2                !
 ! A62   A(20,21,40)           111.3336         estimate D2E/DX2                !
 ! A63   A(38,21,39)           106.6272         estimate D2E/DX2                !
 ! A64   A(38,21,40)           107.4139         estimate D2E/DX2                !
 ! A65   A(39,21,40)           108.5621         estimate D2E/DX2                !
 ! A66   A(20,22,41)           110.7787         estimate D2E/DX2                !
 ! A67   A(20,22,42)           111.9265         estimate D2E/DX2                !
 ! A68   A(20,22,43)           111.3307         estimate D2E/DX2                !
 ! A69   A(41,22,42)           106.6304         estimate D2E/DX2                !
 ! A70   A(41,22,43)           108.5481         estimate D2E/DX2                !
 ! A71   A(42,22,43)           107.423          estimate D2E/DX2                !
 ! A72   A(20,23,44)           111.8302         estimate D2E/DX2                !
 ! A73   A(20,23,45)           110.8137         estimate D2E/DX2                !
 ! A74   A(20,23,46)           110.8035         estimate D2E/DX2                !
 ! A75   A(44,23,45)           108.431          estimate D2E/DX2                !
 ! A76   A(44,23,46)           108.4386         estimate D2E/DX2                !
 ! A77   A(45,23,46)           106.3258         estimate D2E/DX2                !
 ! A78   A(6,24,25)            121.778          estimate D2E/DX2                !
 ! A79   A(6,24,47)            119.4237         estimate D2E/DX2                !
 ! A80   A(25,24,47)           118.7914         estimate D2E/DX2                !
 ! A81   A(3,25,24)            119.7707         estimate D2E/DX2                !
 ! A82   A(3,25,26)            115.8922         estimate D2E/DX2                !
 ! A83   A(24,25,26)           124.3362         estimate D2E/DX2                !
 ! A84   A(25,26,27)           117.6702         estimate D2E/DX2                !
 ! A85   A(26,27,48)           107.7303         estimate D2E/DX2                !
 ! A86   A(26,27,49)           111.2504         estimate D2E/DX2                !
 ! A87   A(26,27,50)           111.104          estimate D2E/DX2                !
 ! A88   A(48,27,49)           107.5964         estimate D2E/DX2                !
 ! A89   A(48,27,50)           107.582          estimate D2E/DX2                !
 ! A90   A(49,27,50)           111.3722         estimate D2E/DX2                !
 ! D1    D(28,1,2,3)           -62.4248         estimate D2E/DX2                !
 ! D2    D(29,1,2,3)            62.0458         estimate D2E/DX2                !
 ! D3    D(30,1,2,3)           179.8144         estimate D2E/DX2                !
 ! D4    D(1,2,3,4)              0.2581         estimate D2E/DX2                !
 ! D5    D(1,2,3,25)          -179.8571         estimate D2E/DX2                !
 ! D6    D(2,3,4,5)           -179.9569         estimate D2E/DX2                !
 ! D7    D(2,3,4,31)             0.2053         estimate D2E/DX2                !
 ! D8    D(25,3,4,5)             0.1611         estimate D2E/DX2                !
 ! D9    D(25,3,4,31)         -179.6767         estimate D2E/DX2                !
 ! D10   D(2,3,25,24)          179.8267         estimate D2E/DX2                !
 ! D11   D(2,3,25,26)            0.1434         estimate D2E/DX2                !
 ! D12   D(4,3,25,24)           -0.2817         estimate D2E/DX2                !
 ! D13   D(4,3,25,26)         -179.965          estimate D2E/DX2                !
 ! D14   D(3,4,5,6)              0.1954         estimate D2E/DX2                !
 ! D15   D(3,4,5,32)          -179.3331         estimate D2E/DX2                !
 ! D16   D(31,4,5,6)          -179.9606         estimate D2E/DX2                !
 ! D17   D(31,4,5,32)            0.5109         estimate D2E/DX2                !
 ! D18   D(4,5,6,7)            179.4605         estimate D2E/DX2                !
 ! D19   D(4,5,6,24)            -0.4147         estimate D2E/DX2                !
 ! D20   D(32,5,6,7)            -1.0378         estimate D2E/DX2                !
 ! D21   D(32,5,6,24)          179.0871         estimate D2E/DX2                !
 ! D22   D(5,6,7,8)            173.4926         estimate D2E/DX2                !
 ! D23   D(5,6,7,16)            -6.2536         estimate D2E/DX2                !
 ! D24   D(24,6,7,8)            -6.6377         estimate D2E/DX2                !
 ! D25   D(24,6,7,16)          173.6161         estimate D2E/DX2                !
 ! D26   D(5,6,24,25)            0.2908         estimate D2E/DX2                !
 ! D27   D(5,6,24,47)          179.3258         estimate D2E/DX2                !
 ! D28   D(7,6,24,25)         -179.5834         estimate D2E/DX2                !
 ! D29   D(7,6,24,47)           -0.5483         estimate D2E/DX2                !
 ! D30   D(6,7,8,9)              3.0422         estimate D2E/DX2                !
 ! D31   D(6,7,8,10)          -174.8342         estimate D2E/DX2                !
 ! D32   D(16,7,8,9)          -177.1868         estimate D2E/DX2                !
 ! D33   D(16,7,8,10)            4.9367         estimate D2E/DX2                !
 ! D34   D(6,7,16,15)          173.6826         estimate D2E/DX2                !
 ! D35   D(6,7,16,17)          -66.7692         estimate D2E/DX2                !
 ! D36   D(6,7,16,37)           57.1974         estimate D2E/DX2                !
 ! D37   D(8,7,16,15)           -6.0981         estimate D2E/DX2                !
 ! D38   D(8,7,16,17)          113.4501         estimate D2E/DX2                !
 ! D39   D(8,7,16,37)         -122.5833         estimate D2E/DX2                !
 ! D40   D(7,8,10,11)          177.0095         estimate D2E/DX2                !
 ! D41   D(7,8,10,15)           -1.529          estimate D2E/DX2                !
 ! D42   D(9,8,10,11)           -1.1163         estimate D2E/DX2                !
 ! D43   D(9,8,10,15)         -179.6548         estimate D2E/DX2                !
 ! D44   D(8,10,11,12)        -178.3751         estimate D2E/DX2                !
 ! D45   D(8,10,11,33)           1.2769         estimate D2E/DX2                !
 ! D46   D(15,10,11,12)         -0.0189         estimate D2E/DX2                !
 ! D47   D(15,10,11,33)        179.633          estimate D2E/DX2                !
 ! D48   D(8,10,15,14)         178.4611         estimate D2E/DX2                !
 ! D49   D(8,10,15,16)          -2.3604         estimate D2E/DX2                !
 ! D50   D(11,10,15,14)         -0.1838         estimate D2E/DX2                !
 ! D51   D(11,10,15,16)        178.9947         estimate D2E/DX2                !
 ! D52   D(10,11,12,13)          0.1669         estimate D2E/DX2                !
 ! D53   D(10,11,12,34)       -179.9977         estimate D2E/DX2                !
 ! D54   D(33,11,12,13)       -179.4827         estimate D2E/DX2                !
 ! D55   D(33,11,12,34)          0.3527         estimate D2E/DX2                !
 ! D56   D(11,12,13,14)         -0.1179         estimate D2E/DX2                !
 ! D57   D(11,12,13,35)       -179.9395         estimate D2E/DX2                !
 ! D58   D(34,12,13,14)       -179.9535         estimate D2E/DX2                !
 ! D59   D(34,12,13,35)          0.2249         estimate D2E/DX2                !
 ! D60   D(12,13,14,15)         -0.0834         estimate D2E/DX2                !
 ! D61   D(12,13,14,36)       -179.4082         estimate D2E/DX2                !
 ! D62   D(35,13,14,15)        179.7379         estimate D2E/DX2                !
 ! D63   D(35,13,14,36)          0.413          estimate D2E/DX2                !
 ! D64   D(13,14,15,10)          0.2297         estimate D2E/DX2                !
 ! D65   D(13,14,15,16)       -178.7612         estimate D2E/DX2                !
 ! D66   D(36,14,15,10)        179.5469         estimate D2E/DX2                !
 ! D67   D(36,14,15,16)          0.5559         estimate D2E/DX2                !
 ! D68   D(10,15,16,7)           5.0589         estimate D2E/DX2                !
 ! D69   D(10,15,16,17)       -118.454          estimate D2E/DX2                !
 ! D70   D(10,15,16,37)        120.5059         estimate D2E/DX2                !
 ! D71   D(14,15,16,7)        -175.8678         estimate D2E/DX2                !
 ! D72   D(14,15,16,17)         60.6194         estimate D2E/DX2                !
 ! D73   D(14,15,16,37)        -60.4207         estimate D2E/DX2                !
 ! D74   D(7,16,17,18)         169.3986         estimate D2E/DX2                !
 ! D75   D(7,16,17,19)         -12.7829         estimate D2E/DX2                !
 ! D76   D(15,16,17,18)        -74.9144         estimate D2E/DX2                !
 ! D77   D(15,16,17,19)        102.9041         estimate D2E/DX2                !
 ! D78   D(37,16,17,18)         46.161          estimate D2E/DX2                !
 ! D79   D(37,16,17,19)       -136.0205         estimate D2E/DX2                !
 ! D80   D(16,17,19,20)       -179.8104         estimate D2E/DX2                !
 ! D81   D(18,17,19,20)         -2.051          estimate D2E/DX2                !
 ! D82   D(17,19,20,21)         63.5292         estimate D2E/DX2                !
 ! D83   D(17,19,20,22)        -62.0663         estimate D2E/DX2                !
 ! D84   D(17,19,20,23)       -179.2062         estimate D2E/DX2                !
 ! D85   D(19,20,21,38)        -69.0141         estimate D2E/DX2                !
 ! D86   D(19,20,21,39)         49.8416         estimate D2E/DX2                !
 ! D87   D(19,20,21,40)        170.7482         estimate D2E/DX2                !
 ! D88   D(22,20,21,38)         56.0828         estimate D2E/DX2                !
 ! D89   D(22,20,21,39)        174.9385         estimate D2E/DX2                !
 ! D90   D(22,20,21,40)        -64.1549         estimate D2E/DX2                !
 ! D91   D(23,20,21,38)        176.2903         estimate D2E/DX2                !
 ! D92   D(23,20,21,39)        -64.854          estimate D2E/DX2                !
 ! D93   D(23,20,21,40)         56.0526         estimate D2E/DX2                !
 ! D94   D(19,20,22,41)        -50.0039         estimate D2E/DX2                !
 ! D95   D(19,20,22,42)         68.8588         estimate D2E/DX2                !
 ! D96   D(19,20,22,43)       -170.8961         estimate D2E/DX2                !
 ! D97   D(21,20,22,41)       -175.1048         estimate D2E/DX2                !
 ! D98   D(21,20,22,42)        -56.242          estimate D2E/DX2                !
 ! D99   D(21,20,22,43)         64.0031         estimate D2E/DX2                !
 ! D100  D(23,20,22,41)         64.628          estimate D2E/DX2                !
 ! D101  D(23,20,22,42)       -176.5092         estimate D2E/DX2                !
 ! D102  D(23,20,22,43)        -56.2641         estimate D2E/DX2                !
 ! D103  D(19,20,23,44)        179.929          estimate D2E/DX2                !
 ! D104  D(19,20,23,45)        -58.9638         estimate D2E/DX2                !
 ! D105  D(19,20,23,46)         58.8192         estimate D2E/DX2                !
 ! D106  D(21,20,23,44)        -61.1791         estimate D2E/DX2                !
 ! D107  D(21,20,23,45)         59.9281         estimate D2E/DX2                !
 ! D108  D(21,20,23,46)        177.7111         estimate D2E/DX2                !
 ! D109  D(22,20,23,44)         61.0951         estimate D2E/DX2                !
 ! D110  D(22,20,23,45)       -177.7977         estimate D2E/DX2                !
 ! D111  D(22,20,23,46)        -60.0146         estimate D2E/DX2                !
 ! D112  D(6,24,25,3)            0.0532         estimate D2E/DX2                !
 ! D113  D(6,24,25,26)         179.7081         estimate D2E/DX2                !
 ! D114  D(47,24,25,3)        -178.9878         estimate D2E/DX2                !
 ! D115  D(47,24,25,26)          0.6672         estimate D2E/DX2                !
 ! D116  D(3,25,26,27)        -177.3845         estimate D2E/DX2                !
 ! D117  D(24,25,26,27)          2.9485         estimate D2E/DX2                !
 ! D118  D(25,26,27,48)        178.1134         estimate D2E/DX2                !
 ! D119  D(25,26,27,49)         60.4112         estimate D2E/DX2                !
 ! D120  D(25,26,27,50)        -64.2842         estimate D2E/DX2                !
 --------------------------------------------------------------------------------
 Trust Radius=3.00D-01 FncErr=1.00D-07 GrdErr=1.00D-06 EigMax=2.50D+02 EigMin=1.00D-04
 Number of steps in this run=    272 maximum allowed number of steps=    300.
 GradGradGradGradGradGradGradGradGradGradGradGradGradGradGradGradGradGrad

 Leave Link  103 at Mon Dec  4 22:28:52 2023, MaxMem=  2147483648 cpu:               3.0 elap:               0.2
 (Enter /opt/gaussian/g16-c01/g16/l202.exe)
                          Input orientation:                          
 ---------------------------------------------------------------------
 Center     Atomic      Atomic             Coordinates (Angstroms)
 Number     Number       Type             X           Y           Z
 ---------------------------------------------------------------------
      1          6           0        4.785388    2.559771   -2.153588
      2          8           0        4.585148    2.036464   -0.848972
      3          6           0        3.507696    1.211256   -0.650191
      4          6           0        2.597601    0.845783   -1.640769
      5          6           0        1.524169   -0.003848   -1.342638
      6          6           0        1.327363   -0.508089   -0.049070
      7          7           0        0.222794   -1.364088    0.244412
      8          6           0       -0.010283   -2.029775    1.452854
      9          8           0        0.596571   -2.012325    2.508117
     10          6           0       -1.184796   -2.885858    1.257867
     11          6           0       -1.763480   -3.774413    2.146233
     12          6           0       -2.867255   -4.503218    1.701897
     13          6           0       -3.357285   -4.330594    0.395254
     14          6           0       -2.753363   -3.426050   -0.484850
     15          6           0       -1.659726   -2.702686   -0.034353
     16          6           0       -0.836821   -1.658479   -0.735669
     17          6           0       -1.731775   -0.465920   -1.126169
     18          8           0       -2.525443   -0.508090   -2.060495
     19          8           0       -1.564290    0.592372   -0.290521
     20          6           0       -2.307526    1.824423   -0.464107
     21          6           0       -3.810737    1.594526   -0.280015
     22          6           0       -1.986218    2.479346   -1.811443
     23          6           0       -1.805865    2.741648    0.661023
     24          6           0        2.252986   -0.136320    0.936492
     25          6           0        3.335476    0.712525    0.652160
     26          8           0        4.269222    1.114734    1.577321
     27          6           0        4.164217    0.587738    2.893014
     28          1           0        4.967380    1.758336   -2.877113
     29          1           0        3.942785    3.187717   -2.461264
     30          1           0        5.678150    3.192030   -2.127244
     31          1           0        2.692633    1.201457   -2.661312
     32          1           0        0.862731   -0.254242   -2.165855
     33          1           0       -1.365818   -3.899920    3.148216
     34          1           0       -3.351399   -5.212521    2.369776
     35          1           0       -4.220066   -4.907358    0.066860
     36          1           0       -3.145672   -3.292861   -1.489874
     37          1           0       -0.373353   -2.086537   -1.631592
     38          1           0       -4.235593    0.998585   -1.093329
     39          1           0       -4.009239    1.045825    0.647565
     40          1           0       -4.357905    2.542838   -0.248068
     41          1           0       -0.902868    2.554945   -1.958447
     42          1           0       -2.376430    1.897551   -2.651918
     43          1           0       -2.417961    3.483689   -1.879276
     44          1           0       -2.297303    3.719923    0.638466
     45          1           0       -1.983619    2.287008    1.642680
     46          1           0       -0.723007    2.895677    0.584222
     47          1           0        2.126074   -0.497788    1.948173
     48          1           0        4.999162    0.984612    3.478606
     49          1           0        4.250385   -0.503873    2.891355
     50          1           0        3.237168    0.914074    3.375581
 ---------------------------------------------------------------------
                    Distance matrix (angstroms):
                    1          2          3          4          5
     1  C    0.000000
     2  O    1.419848   0.000000
     3  C    2.389810   1.371636   0.000000
     4  C    2.826155   2.448470   1.393947   0.000000
     5  C    4.226740   3.711627   2.427002   1.401075   0.000000
     6  C    5.079242   4.210434   2.841011   2.445400   1.402252
     7  N    6.477989   5.638207   4.268875   3.751952   2.462226
     8  C    7.554391   6.553677   5.225252   4.963909   3.778055
     9  O    7.757689   6.600870   5.370385   5.420900   4.441028
    10  C    8.771317   7.871485   6.515099   6.052583   4.733614
    11  C   10.074623   9.112772   7.775743   7.396393   6.099018
    12  C   11.104662  10.237807   8.878487   8.345650   6.985566
    13  C   10.967080  10.255231   8.884426   8.148677   6.750525
    14  C    9.769724   9.155621   7.793125   6.943884   5.544777
    15  C    8.586274   7.881726   6.511563   5.770359   4.374074
    16  C    7.170311   6.562255   5.207448   4.345778   2.946267
    17  C    7.258361   6.800168   5.521914   4.552897   3.295685
    18  O    7.928978   7.648728   6.429920   5.315517   4.143541
    19  O    6.903629   6.341361   5.122248   4.382776   3.316777
    20  C    7.328336   6.906666   5.850419   5.138340   4.335467
    21  C    8.850725   8.426738   7.337805   6.593866   5.669673
    22  C    6.780721   6.656226   5.756705   4.869194   4.325373
    23  C    7.169361   6.604727   5.682896   5.318182   4.758312
    24  C    4.819809   3.653471   2.430601   2.779489   2.396488
    25  C    3.658795   2.359638   1.405173   2.412414   2.788054
    26  O    4.034135   2.614631   2.356066   3.636311   4.160854
    27  C    5.453711   4.034656   3.657061   4.803755   5.025990
    28  H    1.094946   2.082501   2.718300   2.824385   4.161203
    29  H    1.094971   2.082666   2.715821   2.822656   4.157778
    30  H    1.094289   2.040580   3.288772   3.902732   5.299509
    31  H    2.546061   2.750168   2.170030   1.084916   2.134706
    32  H    4.827635   4.564855   3.382419   2.120270   1.085303
    33  H   10.376612   9.307640   8.018925   7.820791   6.610535
    34  H   12.127516  11.220379   9.870780   9.390321   8.042603
    35  H   11.907418  11.251098   9.882809   9.082687   7.682925
    36  H    9.879045   9.411591   8.078332   7.080701   5.713729
    37  H    6.962275   6.496027   5.186630   4.174345   2.832257
    38  H    9.216265   8.884952   7.758874   6.856791   5.851657
    39  H    9.353286   8.779777   7.629931   6.994771   5.973385
    40  H    9.339759   8.977511   7.987646   7.293742   6.502499
    41  H    5.691604   5.622995   4.792714   3.908380   3.580105
    42  H    7.209612   7.192599   6.253067   5.183592   4.532572
    43  H    7.267538   7.224924   6.464365   5.671975   5.290679
    44  H    7.701041   7.239795   6.453841   6.116836   5.691651
    45  H    7.765662   7.029922   6.047234   5.817709   5.144387
    46  H    6.160426   5.564962   4.718040   4.492114   4.143650
    47  H    5.765853   4.504831   3.403117   3.861091   3.381672
    48  H    5.852216   4.472777   4.395771   5.656392   6.024701
    49  H    5.926516   4.533809   4.004473   5.009333   5.060531
    50  H    5.973024   4.574238   4.045781   5.057418   5.102797
                    6          7          8          9         10
     6  C    0.000000
     7  N    1.427914   0.000000
     8  C    2.522023   1.399213   0.000000
     9  O    3.055485   2.384173   1.217438   0.000000
    10  C    3.697677   2.307419   1.466417   2.345091   0.000000
    11  C    5.004152   3.656757   2.568703   2.967449   1.383329
    12  C    6.051592   4.639699   3.787114   4.341961   2.375644
    13  C    6.062582   4.651868   4.196988   5.046934   2.747921
    14  C    5.035546   3.693375   3.637137   4.709408   2.406091
    15  C    3.706639   2.326679   2.320615   3.468664   1.388864
    16  C    2.545291   1.473095   2.368683   3.563982   2.366798
    17  C    3.243493   2.550596   3.472828   4.584823   3.440772
    18  O    4.346256   3.687565   4.580958   5.734275   4.296818
    19  O    3.103380   2.703250   3.511403   4.391599   3.826174
    20  C    4.338812   4.131721   4.879232   5.655840   5.139306
    21  C    5.556473   5.029691   5.530085   6.340932   5.416132
    22  C    4.796931   4.886539   5.906956   6.745703   6.232845
    23  C    4.569698   4.598488   5.159224   5.637705   5.693046
    24  C    1.402256   2.471451   2.995695   2.955184   4.413795
    25  C    2.452374   3.763957   4.399480   4.286139   5.809312
    26  O    3.732725   4.928974   5.312023   4.912560   6.771492
    27  C    4.231363   5.134154   5.133409   4.431317   6.584187
    28  H    5.136559   6.481091   7.607597   7.894464   8.747335
    29  H    5.130116   6.471317   7.626879   7.932990   8.775667
    30  H    6.077749   7.492921   8.511323   8.625215   9.772396
    31  H    3.407392   4.596233   5.888376   6.437769   6.862985
    32  H    2.181994   2.729591   4.124285   5.000771   4.779084
    33  H    5.383343   4.169677   2.865165   2.797090   2.152791
    34  H    7.062104   5.665904   4.704644   5.083981   3.368066
    35  H    7.081029   5.685534   5.284291   6.127066   3.836382
    36  H    5.462501   4.251409   4.481707   5.623885   3.400113
    37  H    2.808613   2.096834   3.106260   4.252464   3.105854
    38  H    5.857220   5.220056   5.788545   6.736898   5.470318
    39  H    5.601720   4.886749   5.108763   5.833303   4.879352
    40  H    6.455233   6.040647   6.534810   7.272750   6.465849
    41  H    4.242856   4.634493   5.783886   6.561895   6.326650
    42  H    5.126403   5.077695   6.153998   7.124032   6.291853
    43  H    5.771603   5.914776   6.877375   7.651326   7.206490
    44  H    5.611327   5.687999   6.241211   6.687957   6.727382
    45  H    4.651579   4.489311   4.750232   5.088283   5.248308
    46  H    4.023767   4.376712   5.051987   5.434256   5.838938
    47  H    2.151052   2.697360   2.675135   2.224127   4.140201
    48  H    5.306106   6.228169   6.187466   5.413528   7.625848
    49  H    4.146104   4.895689   4.748784   3.971480   6.154943
    50  H    4.171107   4.907208   4.786341   4.035970   6.203061
                   11         12         13         14         15
    11  C    0.000000
    12  C    1.395317   0.000000
    13  C    2.432176   1.406145   0.000000
    14  C    2.832635   2.440312   1.399109   0.000000
    15  C    2.431937   2.777518   2.390890   1.386450   0.000000
    16  C    3.693404   4.261095   3.843426   2.619227   1.503125
    17  C    4.653573   5.058364   4.460125   3.196451   2.490055
    18  O    5.380150   5.498498   4.618896   3.324018   3.109818
    19  O    5.004624   5.624276   5.284005   4.195161   3.306378
    20  C    6.201357   6.711476   6.302756   5.269409   4.593370
    21  C    6.237263   6.480788   5.980690   5.134801   4.811780
    22  C    7.404209   7.866129   7.288664   6.100989   5.487996
    23  C    6.683315   7.395813   7.245284   6.344389   5.490508
    24  C    5.552584   6.772925   7.025668   6.156790   4.778921
    25  C    6.954439   8.171891   8.384038   7.449467   6.089910
    26  O    7.785943   9.083293   9.445236   8.613244   7.233437
    27  C    7.397542   8.762317   9.327475   8.681784   7.301690
    28  H   10.057325  11.025239  10.820513   9.602638   8.479418
    29  H   10.112455  11.084180  10.861663   9.616991   8.483801
    30  H   11.053135  12.120359  12.024639  10.843747   9.642214
    31  H    8.229746   9.082580   8.749154   7.470588   6.409858
    32  H    6.154892   6.850263   6.401911   5.095319   4.111079
    33  H    1.085291   2.170281   3.424941   3.917780   3.412989
    34  H    2.153976   1.087919   2.162537   3.420236   3.865342
    35  H    3.412063   2.160271   1.088527   2.156357   3.380261
    36  H    3.919646   3.424892   2.162262   1.087069   2.162148
    37  H    4.365013   4.813735   4.248264   2.962053   2.141394
    38  H    6.275955   6.321034   5.602451   4.705810   4.632054
    39  H    5.524865   5.762605   5.421677   4.780926   4.476221
    40  H    7.236807   7.461321   6.975613   6.185325   5.902658
    41  H    7.592748   8.189908   7.679500   6.431805   5.649571
    42  H    7.454471   7.756704   7.002651   5.760121   5.341113
    43  H    8.325450   8.764551   8.192609   7.057012   6.499992
    44  H    7.663119   8.311184   8.123641   7.248087   6.489152
    45  H    6.086284   6.847736   6.872822   6.144747   5.273935
    46  H    6.929110   7.783999   7.693772   6.725288   5.709794
    47  H    5.089610   6.406048   6.867983   6.188960   4.808770
    48  H    8.375969   9.754665  10.372496   9.760357   8.383188
    49  H    6.886088   8.250477   8.874174   8.306044   6.951544
    50  H    6.964172   8.331401   8.937321   8.344223   6.977691
                   16         17         18         19         20
    16  C    0.000000
    17  C    1.541308   0.000000
    18  O    2.435160   1.226643   0.000000
    19  O    2.407010   1.358801   2.295134   0.000000
    20  C    3.790425   2.452649   2.834883   1.449304   0.000000
    21  C    4.431009   3.046883   3.040244   2.459867   1.531792
    22  C    4.427189   3.034622   3.045909   2.460061   1.532148
    23  C    4.717087   3.672606   4.299448   2.362876   1.535866
    24  C    3.828838   4.499058   5.652745   4.075310   5.157951
    25  C    4.995577   5.498020   6.572577   4.991071   5.858826
    26  O    6.253983   6.768995   7.876213   6.147484   6.922767
    27  C    6.574436   7.212957   8.395811   6.553679   7.394803
    28  H    7.067472   7.272675   7.870575   7.121281   7.664935
    29  H    7.021960   6.879838   7.460401   6.463421   6.701761
    30  H    8.240678   8.324046   8.999682   7.911050   8.270876
    31  H    4.934002   4.971136   5.523753   4.910502   5.497034
    32  H    2.627887   2.803073   3.399303   3.181833   4.155397
    33  H    4.515358   5.495148   6.322967   5.660830   6.834017
    34  H    5.347720   6.113512   6.514689   6.630816   7.657620
    35  H    4.758741   5.228889   5.172132   6.117834   7.018305
    36  H    2.927597   3.181663   2.909509   4.362826   5.285951
    37  H    1.095771   2.174204   2.703136   3.223873   4.516598
    38  H    4.328921   2.900855   2.475902   2.818753   2.189834
    39  H    4.392133   3.258581   3.456861   2.657706   2.176662
    40  H    5.503349   4.089040   3.993867   3.407404   2.183311
    41  H    4.387766   3.241203   3.467758   2.659163   2.177103
    42  H    4.322934   2.886085   2.481752   2.817669   2.190117
    43  H    5.499976   4.078901   3.997336   3.407728   2.183589
    44  H    5.740075   4.577668   5.021208   3.343935   2.192873
    45  H    4.747479   3.912616   4.671151   2.604783   2.181158
    46  H    4.742932   3.904278   4.672144   2.603487   2.181119
    47  H    4.162807   4.933112   6.140532   4.451852   5.555949
    48  H    7.668425   8.283327   9.462002   7.578857   8.344936
    49  H    6.353588   7.206121   8.392418   6.718373   7.725690
    50  H    6.333861   6.845475   8.048674   6.049611   6.805554
                   21         22         23         24         25
    21  C    0.000000
    22  C    2.541072   0.000000
    23  C    2.494184   2.492873   0.000000
    24  C    6.422185   5.688911   4.983257   0.000000
    25  C    7.260526   6.124657   5.527278   1.404695   0.000000
    26  O    8.304555   7.244061   6.355559   2.457846   1.374619
    27  C    8.641853   7.971069   6.727778   2.829318   2.392449
    28  H    9.155714   7.071636   7.704684   5.049875   4.026487
    29  H    8.210555   6.006424   6.557029   5.044739   4.023532
    30  H    9.798125   7.703907   7.999235   5.674164   4.400131
    31  H    6.936779   4.924117   5.800567   3.863564   3.410484
    32  H    5.368020   3.964167   4.907953   3.401657   3.871733
    33  H    6.922379   8.104206   7.105645   5.670287   7.043231
    34  H    7.319035   8.860651   8.281142   7.696184   9.097839
    35  H    6.523984   7.942386   8.042928   8.088230   9.434611
    36  H    5.078644   5.896280   6.544978   6.707944   7.914335
    37  H    5.214652   4.845716   5.533493   4.158853   5.177421
    38  H    1.094133   2.787118   3.466929   6.892738   7.774937
    39  H    1.095847   3.492036   2.780441   6.379374   7.352275
    40  H    1.095312   2.841315   2.716409   7.230833   7.959181
    41  H    3.492168   1.095889   2.777028   5.057963   5.307856
    42  H    2.788366   1.094143   3.466067   6.200388   6.704259
    43  H    2.840140   1.095312   2.716322   6.546049   6.869465
    44  H    2.766117   2.763668   1.095008   5.971981   6.385361
    45  H    2.741286   3.459475   1.096332   4.931535   5.634971
    46  H    3.460343   2.740118   1.096451   4.263055   4.608910
    47  H    6.677449   6.317356   5.254602   1.081788   2.146430
    48  H    9.597580   8.889003   7.571944   3.906445   3.291000
    49  H    8.913055   8.361287   7.223984   2.818898   2.707522
    50  H    7.968649   7.525892   6.011741   2.832154   2.732638
                   26         27         28         29         30
    26  O    0.000000
    27  C    1.421196   0.000000
    28  H    4.554518   5.942200   0.000000
    29  H    4.551262   5.956275   1.807168   0.000000
    30  H    4.474823   5.854684   1.767194   1.767224   0.000000
    31  H    4.523181   5.778646   2.351841   2.355446   3.627798
    32  H    5.243057   6.099254   4.626500   4.628291   5.921701
    33  H    7.705072   7.126394  10.412965  10.482468  11.302377
    34  H    9.936599   9.507958  12.055073  12.128811  13.129829
    35  H   10.517371  10.415346  11.726364  11.770887  12.976473
    36  H    9.155066   9.365000   9.657155   9.653378  10.969042
    37  H    6.488356   6.943583   6.697597   6.865505   8.045473
    38  H    8.915029   9.306800   9.404989   8.576095  10.206002
    39  H    8.330793   8.488655   9.670094   8.802682  10.302974
    40  H    8.933020   9.290607   9.720507   8.614845  10.231088
    41  H    6.428560   7.285735   5.994860   4.912594   6.613937
    42  H    7.916057   8.674211   7.348581   6.452391   8.174792
    43  H    7.891668   8.630548   7.649561   6.394169   8.105157
    44  H    7.126550   7.526275   8.305585   6.987866   8.457876
    45  H    6.362116   6.499749   8.308093   7.264702   8.586856
    46  H    5.392620   5.877249   6.756840   5.579416   6.958066
    47  H    2.707553   2.495019   6.037094   6.027149   6.545306
    48  H    2.040742   1.094331   6.402720   6.422745   6.062943
    49  H    2.084929   1.095008   6.237539   6.509453   6.394103
    50  H    2.083060   1.094891   6.542369   6.303658   6.436502
                   31         32         33         34         35
    31  H    0.000000
    32  H    2.390205   0.000000
    33  H    8.731878   6.818852   0.000000
    34  H   10.147969   7.931921   2.504281   0.000000
    35  H    9.620081   7.243710   4.319308   2.480147   0.000000
    36  H    7.460360   5.075180   5.004826   4.315590   2.486834
    37  H    4.612103   2.273905   5.207678   5.886551   5.063494
    38  H    7.106338   5.358432   7.086724   7.166082   6.018841
    39  H    7.475826   5.774218   6.140140   6.524236   5.985153
    40  H    7.571865   6.225480   7.873783   8.246924   7.458123
    41  H    3.905583   3.324438   8.243641   9.222925   8.413777
    42  H    5.116643   3.919009   8.262782   8.759058   7.556291
    43  H    5.651401   4.981686   8.994463   9.723673   8.800267
    44  H    6.490814   5.800346   8.076417   9.159536   8.857411
    45  H    6.447488   5.391159   6.397374   7.657834   7.697000
    46  H    5.007042   4.472078   7.291599   8.708589   8.566472
    47  H    4.945278   4.310519   5.020748   7.239418   7.953436
    48  H    6.562445   7.106670   8.029993  10.457812  11.460780
    49  H    6.013888   6.092117   6.568169   8.957150   9.955752
    50  H    6.068211   6.140882   6.664361   9.052957  10.022327
                   36         37         38         39         40
    36  H    0.000000
    37  H    3.026723   0.000000
    38  H    4.445412   4.972384   0.000000
    39  H    4.913104   5.312807   1.756183   0.000000
    40  H    6.088265   6.262740   1.764694   1.778981   0.000000
    41  H    6.280650   4.683009   3.778590   4.326463   3.855233
    42  H    5.374240   4.574532   2.587243   3.778636   3.181373
    43  H    6.826626   5.938787   3.177616   3.854902   2.703594
    44  H    7.377581   6.524548   3.763212   3.175155   2.533289
    45  H    6.503707   5.695762   3.770566   2.575641   3.045917
    46  H    6.961981   5.463931   4.330288   3.771642   3.745622
    47  H    6.886502   4.646071   7.208375   6.458822   7.490719
    48  H   10.455663   8.025584  10.304537   9.442978  10.191706
    49  H    9.037438   6.658891   9.494573   8.698135   9.656142
    50  H    9.061545   6.863768   8.707494   7.744020   8.571397
                   41         42         43         44         45
    41  H    0.000000
    42  H    1.756261   0.000000
    43  H    1.778859   1.764804   0.000000
    44  H    3.169476   3.762171   2.531677   0.000000
    45  H    3.769341   4.330075   3.744980   1.777664   0.000000
    46  H    2.571695   3.768642   3.047532   1.777845   1.754980
    47  H    5.809935   6.868117   7.151907   6.250655   4.973730
    48  H    8.176885   9.634113   9.485041   8.293776   7.336627
    49  H    7.709278   8.967128   9.117369   8.110991   6.943415
    50  H    6.948684   8.295207   8.136149   6.781958   5.669613
                   46         47         48         49         50
    46  H    0.000000
    47  H    4.636079   0.000000
    48  H    6.691251   3.576922   0.000000
    49  H    6.450925   2.324291   1.766669   0.000000
    50  H    5.234637   2.294641   1.766412   1.808772   0.000000
 Stoichiometry    C21H23NO5
 Framework group  C1[X(C21H23NO5)]
 Deg. of freedom   144
 Full point group                 C1      NOp   1
 Largest Abelian subgroup         C1      NOp   1
 Largest concise Abelian subgroup C1      NOp   1
                         Standard orientation:                         
 ---------------------------------------------------------------------
 Center     Atomic      Atomic             Coordinates (Angstroms)
 Number     Number       Type             X           Y           Z
 ---------------------------------------------------------------------
      1          6           0        5.598849    1.036783   -1.538780
      2          8           0        5.070171    0.059382   -0.654949
      3          6           0        3.710873   -0.123881   -0.644577
      4          6           0        2.811621    0.578839   -1.444965
      5          6           0        1.436480    0.322974   -1.364159
      6          6           0        0.921319   -0.636702   -0.481016
      7          7           0       -0.483382   -0.880002   -0.400034
      8          6           0       -1.107158   -1.890002    0.340641
      9          8           0       -0.650835   -2.730171    1.094327
     10          6           0       -2.538848   -1.837174    0.027829
     11          6           0       -3.551289   -2.669524    0.470272
     12          6           0       -4.840141   -2.425918   -0.005573
     13          6           0       -5.081719   -1.371349   -0.903776
     14          6           0       -4.040029   -0.544018   -1.337263
     15          6           0       -2.763055   -0.790035   -0.856577
     16          6           0       -1.474289   -0.063393   -1.122018
     17          6           0       -1.596412    1.400630   -0.655806
     18          8           0       -2.233106    2.245333   -1.276894
     19          8           0       -0.963053    1.613470    0.527366
     20          6           0       -0.949807    2.917381    1.159918
     21          6           0       -2.364238    3.357895    1.549427
     22          6           0       -0.246943    3.953635    0.276948
     23          6           0       -0.123400    2.719297    2.439253
     24          6           0        1.837415   -1.339543    0.314663
     25          6           0        3.218958   -1.095899    0.242954
     26          8           0        4.161758   -1.748598    1.001036
     27          6           0        3.711740   -2.778974    1.870294
     28          1           0        5.388960    0.780522   -2.582420
     29          1           0        5.224338    2.035916   -1.292947
     30          1           0        6.685738    1.049444   -1.412368
     31          1           0        3.144866    1.334512   -2.148491
     32          1           0        0.797713    0.900099   -2.025058
     33          1           0       -3.343805   -3.483601    1.157357
     34          1           0       -5.664523   -3.057732    0.318116
     35          1           0       -6.094095   -1.196110   -1.263326
     36          1           0       -4.238773    0.274588   -2.024361
     37          1           0       -1.239515   -0.096161   -2.191841
     38          1           0       -2.980102    3.577127    0.672058
     39          1           0       -2.879250    2.565325    2.103933
     40          1           0       -2.343888    4.260574    2.169481
     41          1           0        0.726872    3.580745   -0.060113
     42          1           0       -0.824103    4.181283   -0.624280
     43          1           0       -0.092424    4.895603    0.814096
     44          1           0       -0.036343    3.646399    3.015399
     45          1           0       -0.575759    1.953808    3.080613
     46          1           0        0.885781    2.363733    2.199808
     47          1           0        1.474556   -2.079630    1.015284
     48          1           0        4.590214   -3.206112    2.363647
     49          1           0        3.221787   -3.583464    1.311919
     50          1           0        3.056388   -2.378286    2.650518
 ---------------------------------------------------------------------
 Rotational constants (GHZ):           0.2648865           0.1330656           0.1058071
 Leave Link  202 at Mon Dec  4 22:28:53 2023, MaxMem=  2147483648 cpu:              11.7 elap:               0.5
 (Enter /opt/gaussian/g16-c01/g16/l301.exe)
 Standard basis: 6-311++G(d,p) (5D, 7F)
 Ernie: Thresh=  0.10000D-02 Tol=  0.10000D-05 Strict=F.
 There are   782 symmetry adapted cartesian basis functions of A   symmetry.
 There are   755 symmetry adapted basis functions of A   symmetry.
   755 basis functions,  1179 primitive gaussians,   782 cartesian basis functions
    98 alpha electrons       98 beta electrons
       nuclear repulsion energy      2538.5658999615 Hartrees.
 IExCor= 7252 DFT=T Ex+Corr=MN15 ExCW=0 ScaHFX=  0.440000
 ScaDFX=  1.000000  1.000000  1.000000  1.000000 ScalE2=  1.000000  1.000000
 IRadAn=      5 IRanWt=     -1 IRanGd=            0 ICorTp=0 IEmpDi=  4
 NAtoms=   50 NActive=   50 NUniq=   50 SFac= 1.00D+00 NAtFMM=   60 NAOKFM=F Big=F
 Integral buffers will be    131072 words long.
 Raffenetti 2 integral format.
 Two-electron integral symmetry is turned on.
 Leave Link  301 at Mon Dec  4 22:28:53 2023, MaxMem=  2147483648 cpu:               4.2 elap:               0.3
 (Enter /opt/gaussian/g16-c01/g16/l302.exe)
 NPDir=0 NMtPBC=     1 NCelOv=     1 NCel=       1 NClECP=     1 NCelD=      1
         NCelK=      1 NCelE2=     1 NClLst=     1 CellRange=     0.0.
 One-electron integrals computed using PRISM.
 One-electron integral symmetry used in STVInt
 NBasis=   755 RedAO= T EigKep=  1.04D-06  NBF=   755
 NBsUse=   748 1.00D-06 EigRej=  6.32D-07 NBFU=   748
 Precomputing XC quadrature grid using
 IXCGrd= 4 IRadAn=           5 IRanWt=          -1 IRanGd=           0 AccXCQ= 0.00D+00.
 Generated NRdTot=       0 NPtTot=           0 NUsed=           0 NTot=          32
 NSgBfM=   776   776   776   776   776 MxSgAt=    50 MxSgA2=    50.
 Leave Link  302 at Mon Dec  4 22:28:55 2023, MaxMem=  2147483648 cpu:              36.0 elap:               1.5
 (Enter /opt/gaussian/g16-c01/g16/l303.exe)
 DipDrv:  MaxL=1.
 Leave Link  303 at Mon Dec  4 22:28:55 2023, MaxMem=  2147483648 cpu:               8.9 elap:               0.5
 (Enter /opt/gaussian/g16-c01/g16/l401.exe)
 ExpMin= 3.60D-02 ExpMax= 8.59D+03 ExpMxC= 1.30D+03 IAcc=3 IRadAn=         5 AccDes= 0.00D+00
 Harris functional with IExCor= 1009 and IRadAn=       5 diagonalized for initial guess.
 HarFok:  IExCor= 1009 AccDes= 0.00D+00 IRadAn=         5 IDoV= 1 UseB2=F ITyADJ=14
 ICtDFT=  3500011 ScaDFX=  1.000000  1.000000  1.000000  1.000000
 FoFCou: FMM=F IPFlag=           0 FMFlag=      100000 FMFlg1=           0
         NFxFlg=           0 DoJE=T BraDBF=F KetDBF=T FulRan=T
         wScrn=  0.000000 ICntrl=       500 IOpCl=  0 I1Cent=   200000004 NGrid=           0
         NMat0=    1 NMatS0=      1 NMatT0=    0 NMatD0=    1 NMtDS0=    0 NMtDT0=    0
 Petite list used in FoFCou.
 Harris En= -1244.21177571742    
 JPrj=0 DoOrth=F DoCkMO=F.
 Leave Link  401 at Mon Dec  4 22:28:59 2023, MaxMem=  2147483648 cpu:              91.3 elap:               3.6
 (Enter /opt/gaussian/g16-c01/g16/l502.exe)
 Integral symmetry usage will be decided dynamically.
 Closed shell SCF:
 Using DIIS extrapolation, IDIIS=  1040.
 NGot=  2147483648 LenX=  2146231678 LenY=  2145619372
 Requested convergence on RMS density matrix=1.00D-08 within 128 cycles.
 Requested convergence on MAX density matrix=1.00D-06.
 Requested convergence on             energy=1.00D-06.
 No special actions if energy rises.
 Fock matrices will be formed incrementally for  20 cycles.

 Cycle   1  Pass 1  IDiag  1:
 FoFJK:  IHMeth= 1 ICntrl=       0 DoSepK=F KAlg= 0 I1Cent=           0 FoldK=F
 IRaf= 790000000 NMat=       1 IRICut=       1 DoRegI=T DoRafI=F ISym2E= 0 IDoP0=0 IntGTp=1.
 FoFCou: FMM=F IPFlag=           0 FMFlag=      100000 FMFlg1=           0
         NFxFlg=           0 DoJE=F BraDBF=F KetDBF=F FulRan=T
         wScrn=  0.000000 ICntrl=         0 IOpCl=  0 I1Cent=           0 NGrid=           0
         NMat0=    1 NMatS0=      1 NMatT0=    0 NMatD0=    1 NMtDS0=    0 NMtDT0=    0
 Symmetry not used in FoFCou.
 E= -1243.21767861248    
 DIIS: error= 2.73D-02 at cycle   1 NSaved=   1.
 NSaved= 1 IEnMin= 1 EnMin= -1243.21767861248     IErMin= 1 ErrMin= 2.73D-02
 ErrMax= 2.73D-02  0.00D+00 EMaxC= 1.00D-01 BMatC= 8.07D-01 BMatP= 8.07D-01
 IDIUse=3 WtCom= 7.27D-01 WtEn= 2.73D-01
 Coeff-Com:  0.100D+01
 Coeff-En:   0.100D+01
 Coeff:      0.100D+01
 Gap=     0.231 Goal=   None    Shift=    0.000
 GapD=    0.231 DampG=1.000 DampE=0.500 DampFc=0.5000 IDamp=-1.
 Damping current iteration by 5.00D-01
 RMSDP=2.09D-02 MaxDP=2.75D+00              OVMax= 2.01D-01

 Cycle   2  Pass 1  IDiag  1:
 RMSU=  6.34D-03    CP:  8.87D-01
 E= -1243.47319145449     Delta-E=       -0.255512842010 Rises=F Damp=T
 DIIS: error= 7.94D-03 at cycle   2 NSaved=   2.
 NSaved= 2 IEnMin= 2 EnMin= -1243.47319145449     IErMin= 2 ErrMin= 7.94D-03
 ErrMax= 7.94D-03  0.00D+00 EMaxC= 1.00D-01 BMatC= 1.13D-01 BMatP= 8.07D-01
 IDIUse=3 WtCom= 9.21D-01 WtEn= 7.94D-02
 Coeff-Com:  0.798D-01 0.920D+00
 Coeff-En:   0.156D+00 0.844D+00
 Coeff:      0.859D-01 0.914D+00
 Gap=     0.325 Goal=   None    Shift=    0.000
 RMSDP=1.32D-02 MaxDP=2.25D+00 DE=-2.56D-01 OVMax= 1.38D-01

 Cycle   3  Pass 1  IDiag  1:
 RMSU=  6.43D-03    CP:  7.29D-01  9.29D-01
 E= -1243.75550477427     Delta-E=       -0.282313319775 Rises=F Damp=F
 DIIS: error= 1.20D-02 at cycle   3 NSaved=   3.
 NSaved= 3 IEnMin= 3 EnMin= -1243.75550477427     IErMin= 2 ErrMin= 7.94D-03
 ErrMax= 1.20D-02  0.00D+00 EMaxC= 1.00D-01 BMatC= 1.21D-01 BMatP= 1.13D-01
 IDIUse=3 WtCom= 8.80D-01 WtEn= 1.20D-01
 Coeff-Com: -0.593D-01 0.536D+00 0.523D+00
 Coeff-En:   0.000D+00 0.000D+00 0.100D+01
 Coeff:     -0.522D-01 0.472D+00 0.580D+00
 Gap=     0.206 Goal=   None    Shift=    0.000
 RMSDP=4.25D-03 MaxDP=5.34D-01 DE=-2.82D-01 OVMax= 7.82D-02

 Cycle   4  Pass 1  IDiag  1:
 RMSU=  2.61D-03    CP:  6.94D-01  1.12D+00  7.28D-01
 E= -1243.82576208825     Delta-E=       -0.070257313979 Rises=F Damp=F
 DIIS: error= 6.23D-03 at cycle   4 NSaved=   4.
 NSaved= 4 IEnMin= 4 EnMin= -1243.82576208825     IErMin= 4 ErrMin= 6.23D-03
 ErrMax= 6.23D-03  0.00D+00 EMaxC= 1.00D-01 BMatC= 3.07D-02 BMatP= 1.13D-01
 IDIUse=3 WtCom= 9.38D-01 WtEn= 6.23D-02
 Coeff-Com: -0.236D-01 0.108D+00 0.356D+00 0.559D+00
 Coeff-En:   0.000D+00 0.000D+00 0.243D+00 0.757D+00
 Coeff:     -0.221D-01 0.101D+00 0.349D+00 0.572D+00
 Gap=     0.203 Goal=   None    Shift=    0.000
 RMSDP=1.75D-03 MaxDP=2.34D-01 DE=-7.03D-02 OVMax= 3.01D-02

 Cycle   5  Pass 1  IDiag  1:
 RMSU=  7.21D-04    CP:  6.80D-01  1.09D+00  7.96D-01  5.62D-01
 E= -1243.84922649653     Delta-E=       -0.023464408283 Rises=F Damp=F
 DIIS: error= 1.04D-03 at cycle   5 NSaved=   5.
 NSaved= 5 IEnMin= 5 EnMin= -1243.84922649653     IErMin= 5 ErrMin= 1.04D-03
 ErrMax= 1.04D-03  0.00D+00 EMaxC= 1.00D-01 BMatC= 1.04D-03 BMatP= 3.07D-02
 IDIUse=3 WtCom= 9.90D-01 WtEn= 1.04D-02
 Coeff-Com: -0.808D-02 0.276D-01 0.153D+00 0.298D+00 0.530D+00
 Coeff-En:   0.000D+00 0.000D+00 0.000D+00 0.000D+00 0.100D+01
 Coeff:     -0.799D-02 0.273D-01 0.151D+00 0.295D+00 0.535D+00
 Gap=     0.201 Goal=   None    Shift=    0.000
 RMSDP=3.95D-04 MaxDP=2.99D-02 DE=-2.35D-02 OVMax= 1.09D-02

 Cycle   6  Pass 1  IDiag  1:
 RMSU=  2.67D-04    CP:  6.81D-01  1.11D+00  8.15D-01  5.74D-01  6.92D-01
 E= -1243.85006711606     Delta-E=       -0.000840619535 Rises=F Damp=F
 DIIS: error= 3.75D-04 at cycle   6 NSaved=   6.
 NSaved= 6 IEnMin= 6 EnMin= -1243.85006711606     IErMin= 6 ErrMin= 3.75D-04
 ErrMax= 3.75D-04  0.00D+00 EMaxC= 1.00D-01 BMatC= 9.81D-05 BMatP= 1.04D-03
 IDIUse=3 WtCom= 9.96D-01 WtEn= 3.75D-03
 Coeff-Com: -0.657D-03-0.340D-03 0.271D-01 0.676D-01 0.270D+00 0.637D+00
 Coeff-En:   0.000D+00 0.000D+00 0.000D+00 0.000D+00 0.247D-01 0.975D+00
 Coeff:     -0.654D-03-0.339D-03 0.270D-01 0.674D-01 0.269D+00 0.638D+00
 Gap=     0.202 Goal=   None    Shift=    0.000
 RMSDP=1.55D-04 MaxDP=1.46D-02 DE=-8.41D-04 OVMax= 3.83D-03

 Cycle   7  Pass 1  IDiag  1:
 RMSU=  9.94D-05    CP:  6.82D-01  1.10D+00  8.20D-01  5.85D-01  7.34D-01
                    CP:  7.08D-01
 E= -1243.85014890499     Delta-E=       -0.000081788924 Rises=F Damp=F
 DIIS: error= 1.16D-04 at cycle   7 NSaved=   7.
 NSaved= 7 IEnMin= 7 EnMin= -1243.85014890499     IErMin= 7 ErrMin= 1.16D-04
 ErrMax= 1.16D-04  0.00D+00 EMaxC= 1.00D-01 BMatC= 1.16D-05 BMatP= 9.81D-05
 IDIUse=3 WtCom= 9.99D-01 WtEn= 1.16D-03
 Coeff-Com:  0.626D-03-0.345D-02-0.208D-02 0.266D-02 0.836D-01 0.331D+00
 Coeff-Com:  0.588D+00
 Coeff-En:   0.000D+00 0.000D+00 0.000D+00 0.000D+00 0.000D+00 0.000D+00
 Coeff-En:   0.100D+01
 Coeff:      0.625D-03-0.345D-02-0.208D-02 0.266D-02 0.835D-01 0.330D+00
 Coeff:      0.588D+00
 Gap=     0.202 Goal=   None    Shift=    0.000
 RMSDP=4.91D-05 MaxDP=4.19D-03 DE=-8.18D-05 OVMax= 7.05D-04

 Cycle   8  Pass 1  IDiag  1:
 RMSU=  2.94D-05    CP:  6.82D-01  1.10D+00  8.22D-01  5.81D-01  7.28D-01
                    CP:  8.01D-01  8.23D-01
 E= -1243.85015812604     Delta-E=       -0.000009221056 Rises=F Damp=F
 DIIS: error= 3.45D-05 at cycle   8 NSaved=   8.
 NSaved= 8 IEnMin= 8 EnMin= -1243.85015812604     IErMin= 8 ErrMin= 3.45D-05
 ErrMax= 3.45D-05  0.00D+00 EMaxC= 1.00D-01 BMatC= 1.28D-06 BMatP= 1.16D-05
 IDIUse=1 WtCom= 1.00D+00 WtEn= 0.00D+00
 Coeff-Com:  0.516D-03-0.199D-02-0.449D-02-0.800D-02 0.838D-02 0.907D-01
 Coeff-Com:  0.283D+00 0.632D+00
 Coeff:      0.516D-03-0.199D-02-0.449D-02-0.800D-02 0.838D-02 0.907D-01
 Coeff:      0.283D+00 0.632D+00
 Gap=     0.202 Goal=   None    Shift=    0.000
 RMSDP=1.88D-05 MaxDP=2.35D-03 DE=-9.22D-06 OVMax= 2.67D-04

 Cycle   9  Pass 1  IDiag  1:
 RMSU=  1.09D-05    CP:  6.82D-01  1.10D+00  8.22D-01  5.81D-01  7.41D-01
                    CP:  8.00D-01  9.23D-01  9.47D-01
 E= -1243.85015908717     Delta-E=       -0.000000961125 Rises=F Damp=F
 DIIS: error= 2.15D-05 at cycle   9 NSaved=   9.
 NSaved= 9 IEnMin= 9 EnMin= -1243.85015908717     IErMin= 9 ErrMin= 2.15D-05
 ErrMax= 2.15D-05  0.00D+00 EMaxC= 1.00D-01 BMatC= 2.30D-07 BMatP= 1.28D-06
 IDIUse=1 WtCom= 1.00D+00 WtEn= 0.00D+00
 Coeff-Com:  0.239D-03-0.705D-03-0.202D-02-0.483D-02-0.646D-02 0.608D-02
 Coeff-Com:  0.680D-01 0.332D+00 0.607D+00
 Coeff:      0.239D-03-0.705D-03-0.202D-02-0.483D-02-0.646D-02 0.608D-02
 Coeff:      0.680D-01 0.332D+00 0.607D+00
 Gap=     0.202 Goal=   None    Shift=    0.000
 RMSDP=5.81D-06 MaxDP=5.83D-04 DE=-9.61D-07 OVMax= 1.20D-04

 Cycle  10  Pass 1  IDiag  1:
 RMSU=  2.98D-06    CP:  6.82D-01  1.10D+00  8.22D-01  5.80D-01  7.41D-01
                    CP:  8.07D-01  9.30D-01  1.01D+00  9.04D-01
 E= -1243.85015928364     Delta-E=       -0.000000196469 Rises=F Damp=F
 DIIS: error= 3.63D-06 at cycle  10 NSaved=  10.
 NSaved=10 IEnMin=10 EnMin= -1243.85015928364     IErMin=10 ErrMin= 3.63D-06
 ErrMax= 3.63D-06  0.00D+00 EMaxC= 1.00D-01 BMatC= 2.38D-08 BMatP= 2.30D-07
 IDIUse=1 WtCom= 1.00D+00 WtEn= 0.00D+00
 Coeff-Com:  0.482D-04-0.556D-04-0.210D-03-0.109D-02-0.435D-02-0.104D-01
 Coeff-Com: -0.123D-01 0.553D-01 0.268D+00 0.705D+00
 Coeff:      0.482D-04-0.556D-04-0.210D-03-0.109D-02-0.435D-02-0.104D-01
 Coeff:     -0.123D-01 0.553D-01 0.268D+00 0.705D+00
 Gap=     0.202 Goal=   None    Shift=    0.000
 RMSDP=3.63D-06 MaxDP=3.40D-04 DE=-1.96D-07 OVMax= 6.95D-05

 Cycle  11  Pass 1  IDiag  1:
 RMSU=  1.30D-06    CP:  6.82D-01  1.10D+00  8.22D-01  5.80D-01  7.41D-01
                    CP:  8.11D-01  9.30D-01  1.05D+00  9.74D-01  9.65D-01
 E= -1243.85015930389     Delta-E=       -0.000000020258 Rises=F Damp=F
 DIIS: error= 2.93D-06 at cycle  11 NSaved=  11.
 NSaved=11 IEnMin=11 EnMin= -1243.85015930389     IErMin=11 ErrMin= 2.93D-06
 ErrMax= 2.93D-06  0.00D+00 EMaxC= 1.00D-01 BMatC= 7.34D-09 BMatP= 2.38D-08
 IDIUse=1 WtCom= 1.00D+00 WtEn= 0.00D+00
 Coeff-Com: -0.100D-04 0.820D-04 0.238D-03 0.190D-03-0.152D-02-0.714D-02
 Coeff-Com: -0.196D-01-0.278D-01 0.490D-01 0.435D+00 0.572D+00
 Coeff:     -0.100D-04 0.820D-04 0.238D-03 0.190D-03-0.152D-02-0.714D-02
 Coeff:     -0.196D-01-0.278D-01 0.490D-01 0.435D+00 0.572D+00
 Gap=     0.202 Goal=   None    Shift=    0.000
 RMSDP=1.01D-06 MaxDP=1.03D-04 DE=-2.03D-08 OVMax= 2.93D-05

 Cycle  12  Pass 1  IDiag  1:
 RMSU=  6.21D-07    CP:  6.82D-01  1.10D+00  8.23D-01  5.80D-01  7.41D-01
                    CP:  8.11D-01  9.32D-01  1.06D+00  9.94D-01  1.08D+00
                    CP:  8.40D-01
 E= -1243.85015931019     Delta-E=       -0.000000006292 Rises=F Damp=F
 DIIS: error= 6.31D-07 at cycle  12 NSaved=  12.
 NSaved=12 IEnMin=12 EnMin= -1243.85015931019     IErMin=12 ErrMin= 6.31D-07
 ErrMax= 6.31D-07  0.00D+00 EMaxC= 1.00D-01 BMatC= 3.72D-10 BMatP= 7.34D-09
 IDIUse=1 WtCom= 1.00D+00 WtEn= 0.00D+00
 Coeff-Com: -0.905D-05 0.403D-04 0.123D-03 0.176D-03-0.246D-03-0.186D-02
 Coeff-Com: -0.648D-02-0.169D-01-0.906D-02 0.111D+00 0.242D+00 0.681D+00
 Coeff:     -0.905D-05 0.403D-04 0.123D-03 0.176D-03-0.246D-03-0.186D-02
 Coeff:     -0.648D-02-0.169D-01-0.906D-02 0.111D+00 0.242D+00 0.681D+00
 Gap=     0.202 Goal=   None    Shift=    0.000
 RMSDP=3.50D-07 MaxDP=4.13D-05 DE=-6.29D-09 OVMax= 6.36D-06

 Cycle  13  Pass 1  IDiag  1:
 RMSU=  1.69D-07    CP:  6.82D-01  1.10D+00  8.23D-01  5.80D-01  7.41D-01
                    CP:  8.11D-01  9.32D-01  1.06D+00  1.00D+00  1.11D+00
                    CP:  8.83D-01  8.66D-01
 E= -1243.85015931028     Delta-E=       -0.000000000095 Rises=F Damp=F
 DIIS: error= 2.14D-07 at cycle  13 NSaved=  13.
 NSaved=13 IEnMin=13 EnMin= -1243.85015931028     IErMin=13 ErrMin= 2.14D-07
 ErrMax= 2.14D-07  0.00D+00 EMaxC= 1.00D-01 BMatC= 4.87D-11 BMatP= 3.72D-10
 IDIUse=1 WtCom= 1.00D+00 WtEn= 0.00D+00
 Coeff-Com: -0.211D-05 0.518D-05 0.228D-04 0.464D-04 0.104D-03 0.233D-03
 Coeff-Com:  0.632D-04-0.313D-02-0.108D-01-0.101D-01 0.263D-01 0.288D+00
 Coeff-Com:  0.710D+00
 Coeff:     -0.211D-05 0.518D-05 0.228D-04 0.464D-04 0.104D-03 0.233D-03
 Coeff:      0.632D-04-0.313D-02-0.108D-01-0.101D-01 0.263D-01 0.288D+00
 Coeff:      0.710D+00
 Gap=     0.202 Goal=   None    Shift=    0.000
 RMSDP=1.49D-07 MaxDP=2.62D-05 DE=-9.46D-11 OVMax= 3.83D-06

 Cycle  14  Pass 1  IDiag  1:
 RMSU=  4.93D-08    CP:  6.82D-01  1.10D+00  8.23D-01  5.80D-01  7.41D-01
                    CP:  8.11D-01  9.32D-01  1.06D+00  1.00D+00  1.11D+00
                    CP:  9.00D-01  9.26D-01  9.76D-01
 E= -1243.85015931047     Delta-E=       -0.000000000192 Rises=F Damp=F
 DIIS: error= 7.28D-08 at cycle  14 NSaved=  14.
 NSaved=14 IEnMin=14 EnMin= -1243.85015931047     IErMin=14 ErrMin= 7.28D-08
 ErrMax= 7.28D-08  0.00D+00 EMaxC= 1.00D-01 BMatC= 4.71D-12 BMatP= 4.87D-11
 IDIUse=1 WtCom= 1.00D+00 WtEn= 0.00D+00
 Coeff-Com:  0.133D-06-0.190D-05-0.208D-05 0.216D-07 0.585D-04 0.258D-03
 Coeff-Com:  0.586D-03 0.408D-03-0.364D-02-0.152D-01-0.141D-01 0.430D-01
 Coeff-Com:  0.267D+00 0.722D+00
 Coeff:      0.133D-06-0.190D-05-0.208D-05 0.216D-07 0.585D-04 0.258D-03
 Coeff:      0.586D-03 0.408D-03-0.364D-02-0.152D-01-0.141D-01 0.430D-01
 Coeff:      0.267D+00 0.722D+00
 Gap=     0.202 Goal=   None    Shift=    0.000
 RMSDP=4.33D-08 MaxDP=5.17D-06 DE=-1.92D-10 OVMax= 9.15D-07

 Cycle  15  Pass 1  IDiag  1:
 RMSU=  2.17D-08    CP:  6.82D-01  1.10D+00  8.23D-01  5.80D-01  7.41D-01
                    CP:  8.11D-01  9.32D-01  1.06D+00  1.00D+00  1.11D+00
                    CP:  9.02D-01  9.53D-01  1.03D+00  1.05D+00
 E= -1243.85015931053     Delta-E=       -0.000000000061 Rises=F Damp=F
 DIIS: error= 3.63D-08 at cycle  15 NSaved=  15.
 NSaved=15 IEnMin=15 EnMin= -1243.85015931053     IErMin=15 ErrMin= 3.63D-08
 ErrMax= 3.63D-08  0.00D+00 EMaxC= 1.00D-01 BMatC= 8.01D-13 BMatP= 4.71D-12
 IDIUse=1 WtCom= 1.00D+00 WtEn= 0.00D+00
 Coeff-Com:  0.381D-06-0.159D-05-0.354D-05-0.595D-05 0.138D-04 0.926D-04
 Coeff-Com:  0.259D-03 0.652D-03-0.160D-03-0.561D-02-0.103D-01-0.190D-01
 Coeff-Com:  0.316D-01 0.347D+00 0.656D+00
 Coeff:      0.381D-06-0.159D-05-0.354D-05-0.595D-05 0.138D-04 0.926D-04
 Coeff:      0.259D-03 0.652D-03-0.160D-03-0.561D-02-0.103D-01-0.190D-01
 Coeff:      0.316D-01 0.347D+00 0.656D+00
 Gap=     0.202 Goal=   None    Shift=    0.000
 RMSDP=1.45D-08 MaxDP=1.26D-06 DE=-6.09D-11 OVMax= 5.33D-07

 Cycle  16  Pass 1  IDiag  1:
 RMSU=  6.67D-09    CP:  6.82D-01  1.10D+00  8.23D-01  5.80D-01  7.41D-01
                    CP:  8.11D-01  9.32D-01  1.06D+00  1.00D+00  1.11D+00
                    CP:  9.02D-01  9.58D-01  1.06D+00  1.14D+00  8.92D-01
 E= -1243.85015931051     Delta-E=        0.000000000022 Rises=F Damp=F
 DIIS: error= 1.75D-08 at cycle  16 NSaved=  16.
 NSaved=16 IEnMin=15 EnMin= -1243.85015931053     IErMin=16 ErrMin= 1.75D-08
 ErrMax= 1.75D-08  0.00D+00 EMaxC= 1.00D-01 BMatC= 8.59D-14 BMatP= 8.01D-13
 IDIUse=1 WtCom= 1.00D+00 WtEn= 0.00D+00
 Coeff-Com:  0.128D-06-0.358D-06-0.121D-05-0.229D-05-0.319D-05 0.179D-06
 Coeff-Com:  0.176D-04 0.200D-03 0.472D-03-0.701D-04-0.209D-02-0.136D-01
 Coeff-Com: -0.245D-01 0.193D-01 0.252D+00 0.768D+00
 Coeff:      0.128D-06-0.358D-06-0.121D-05-0.229D-05-0.319D-05 0.179D-06
 Coeff:      0.176D-04 0.200D-03 0.472D-03-0.701D-04-0.209D-02-0.136D-01
 Coeff:     -0.245D-01 0.193D-01 0.252D+00 0.768D+00
 Gap=     0.202 Goal=   None    Shift=    0.000
 RMSDP=5.06D-09 MaxDP=3.44D-07 DE= 2.23D-11 OVMax= 2.04D-07

 SCF Done:  E(RMN15) =  -1243.85015931     A.U. after   16 cycles
            NFock= 16  Conv=0.51D-08     -V/T= 2.0036
 KE= 1.239447285745D+03 PE=-7.980594251973D+03 EE= 2.958730906956D+03
 Leave Link  502 at Mon Dec  4 22:34:22 2023, MaxMem=  2147483648 cpu:            8279.5 elap:             323.1
 (Enter /opt/gaussian/g16-c01/g16/l601.exe)
 Copying SCF densities to generalized density rwf, IOpCl= 0 IROHF=0.

 **********************************************************************

            Population analysis using the SCF Density.

 **********************************************************************

 Orbital symmetries:
       Occupied  (A) (A) (A) (A) (A) (A) (A) (A) (A) (A) (A) (A)
                 (A) (A) (A) (A) (A) (A) (A) (A) (A) (A) (A) (A)
                 (A) (A) (A) (A) (A) (A) (A) (A) (A) (A) (A) (A)
                 (A) (A) (A) (A) (A) (A) (A) (A) (A) (A) (A) (A)
[...]
 0.00017718,0.00003749,0.00013815,-0.00004398,0.00001176,-0.00002635,-0
 .00000294,0.00000656,0.00001889,0.00002199,-0.00001707,0.00001104,-0.0
 0007873,0.00002368,0.00005235,-0.00001354,0.00001651,-0.00003820,-0.00
 000750,-0.00001602,0.00001411,-0.00010514,0.00003071,-0.00003905,-0.00
 004889,0.00000299,-0.00000372,-0.00003232,-0.00021518,0.00003120,0.032
 12525,0.05763571,-0.00004917,-0.00003639,0.00013540,0.00009404,0.00015
 146,-0.00004354,-0.00027873,-0.00018789,0.00072934,-0.00016853,-0.0002
 2876,0.00077888,-0.00244949,-0.00245512,-0.00125162,0.00530426,0.00586
 871,-0.01644056,0.00064687,0.00105037,0.00042963,-0.00033470,-0.001043
 62,0.00088765,0.00098909,0.00326211,-0.00167105,0.00007078,-0.00016018
 ,-0.00007205,0.00000251,0.00000466,0.00003475,0.00001100,-0.00000756,0
 .00000055,0.00001274,0.00001341,-0.00000565,-0.00001632,-0.00000671,-0
 .00001595,0.00001004,0.00001821,0.00005753,-0.00002479,0.00005129,-0.0
 0018816,0.00004853,-0.00023285,-0.00041855,0.00000393,0.00002166,0.000
 19323,0.00007048,0.00015684,0.00021916,-0.00003984,0.00004434,-0.00009
 731,-0.00000495,0.00000742,0.00003843,-0.00002134,0.00002202,0.0000083
 1,-0.00018875,-0.00006605,-0.00006634,0.06081763,0.06167410,-0.3269628
 6,0.00169446,0.00162678,-0.00024859,0.00004206,-0.00000872,-0.00244280
 ,-0.00182868,-0.00251663,-0.00075491,0.00000252,-0.00000557,-0.0000162
 2,-0.00000528,0.00000267,-0.00002073,-0.00000168,-0.00000354,-0.000001
 69,0.00004580,0.00004131,-0.00004690,0.00030397,0.00023325,-0.00067637
 ,-0.00001027,0.00000479,-0.00000161,0.00000367,0.00000392,-0.00000005,
 -0.00000025,0.00000442,0.00000160,0.00000283,-0.00000410,-0.00000121,0
 .00003128,0.00003991,0.00001454,0.00001643,0.00000089,0.00000830,-0.00
 000201,0.00000200,-0.00000408,-0.00000053,-0.00000118,-0.00000268,0.00
 002108,0.00000084,-0.00004111,0.00001602,-0.00000951,0.00001624,-0.000
 00590,0.00000047,0.00000230,0.00007534,-0.00003172,0.00001943,0.000044
 92,0.00001530,0.00000843,0.00002180,0.00012799,0.00005734,-0.06290382,
 -0.06542345,0.34894939,-0.00002360,-0.00002393,0.00005550,0.00005059,0
 .00012340,-0.00014026,0.00032002,-0.00000272,0.00025308,-0.00008008,-0
 .00007821,0.00000941,-0.00003791,-0.00000908,-0.00012229,0.00033177,0.
 00015586,-0.00007271,-0.00005114,-0.00008044,0.00005382,0.00008891,0.0
 0009573,-0.00003700,-0.00002092,-0.00011165,0.00001661,-0.00002285,-0.
 00000365,0.00000642,-0.00000076,0.00000476,-0.00001570,-0.00000497,-0.
 00000112,-0.00000406,-0.00000497,-0.00000350,0.00000203,0.00000107,-0.
 00000622,0.00000763,-0.00000555,0.00000343,-0.00000293,0.00003286,0.00
 000249,0.00004012,0.00002786,0.00000798,0.00005798,-0.00002813,0.00001
 406,-0.00004199,-0.00003420,0.00000443,-0.00003428,-0.00001361,-0.0000
 0566,0.00003297,-0.00000092,-0.00001291,-0.00002840,0.00001459,-0.0000
 0999,-0.00000363,0.00011221,-0.00001936,-0.00000603,-0.00015425,-0.000
 62257,0.00022097,0.00044886,-0.00000319,0.00207287,0.00573941,0.006338
 46,0.00647173,-0.14355767,-0.10604269,-0.08622603,-0.00000088,0.000000
 20,-0.00000761,-0.00000798,-0.00000016,-0.00001770,0.00001293,0.000002
 06,-0.00000004,-0.00001909,0.00003641,0.00001154,-0.00000973,0.0000193
 6,-0.00003522,0.00000311,0.00000226,-0.00000006,-0.00000362,-0.0000033
 5,0.00000157,-0.00000343,-0.00000183,-0.00000004,0.00000004,0.00000153
 ,-0.00000170,-0.00000337,0.00000345,-0.00000565,-0.00000861,-0.0000023
 4,-0.00000509,0.00000130,-0.00000245,0.00000237,0.00000116,0.00000675,
 0.00000204,-0.00000591,-0.00001129,0.00001080,0.00000042,0.00000177,-0
 .00000510,-0.00001254,0.00001102,-0.00000089,-0.00004597,0.00002938,-0
 .00002219,-0.00000747,-0.00000367,-0.00000135,0.00003123,-0.00005483,0
 .00004890,-0.00014515,0.00039985,-0.00050947,0.14633613,-0.00003220,-0
 .00003098,0.00007958,0.00015137,0.00008944,-0.00015765,-0.00009876,0.0
 0028616,0.00023155,-0.00005024,-0.00008501,-0.00000062,-0.00002333,-0.
 00006118,-0.00013185,0.00018761,0.00038622,-0.00009359,-0.00009814,-0.
 00003875,0.00000592,0.00019302,0.00007905,0.00008787,-0.00015621,-0.00
 013752,-0.00005501,-0.00004153,-0.00001027,-0.00000618,-0.00000192,0.0
 0000874,-0.00002025,-0.00000699,-0.00000042,-0.00000605,-0.00000909,-0
 .00000604,0.00000170,0.00000040,-0.00000744,0.00000961,-0.00001494,-0.
 00000546,-0.00000126,0.00004793,0.00000993,0.00005050,0.00004055,-0.00
 004089,0.00001503,-0.00003228,0.00002530,-0.00002444,-0.00003947,0.000
 03963,0.00001080,0.00002763,-0.00004645,-0.00002622,-0.00000427,0.0000
 0501,0.00000805,0.00001051,0.00000784,0.00000758,0.00000038,0.00000783
 ,0.00001434,-0.00066018,-0.00031387,0.00019285,0.00004078,0.00058364,0
 .00215052,0.00540931,0.00630254,0.00578156,-0.10573224,-0.16939889,-0.
 09676227,0.00000017,-0.00000765,-0.00002377,-0.00000087,-0.00000135,-0
 .00001264,0.00000296,0.00001381,-0.00000099,0.00003344,-0.00001304,0.0
 0000665,0.00002111,-0.00000765,-0.00004001,0.00000624,0.00000284,-0.00
 000010,-0.00000515,-0.00000423,0.00000201,-0.00000413,-0.00000191,0.00
 000012,-0.00000108,0.00000130,-0.00000281,-0.00000662,0.00000543,-0.00
 000781,0.00000434,-0.00000293,0.00000045,-0.00000301,-0.00000381,0.000
 00070,-0.00000072,0.00000495,-0.00000030,-0.00000196,-0.00000660,-0.00
 000979,-0.00000090,-0.00000457,0.00000343,-0.00000187,0.00000669,0.000
 00081,0.00000366,0.00000371,-0.00000061,-0.00000487,-0.00000666,-0.000
 00019,-0.00002074,0.00000149,-0.00002396,0.00040551,-0.00000768,-0.000
 47011,0.11347919,0.17376728,-0.00002985,-0.00002549,0.00012797,0.00026
 792,0.00031419,0.00000545,-0.00120354,-0.00143507,-0.00075090,0.000376
 75,0.00041212,-0.00029292,-0.00012628,-0.00011510,0.00010365,-0.000077
 28,-0.00010658,0.00005855,-0.00012539,-0.00014777,0.00009632,-0.000074
 79,0.00007664,-0.00029376,0.00008599,0.00000672,0.00015377,0.00000349,
 -0.00001696,0.00001835,-0.00000295,0.00000601,-0.00000428,-0.00000672,
 -0.00000074,-0.00000181,-0.00000465,-0.00000562,0.00000289,0.00000378,
 -0.00000346,0.00001113,-0.00000975,0.00000887,-0.00002046,0.00001385,-
 0.00001509,0.00004588,0.00005522,-0.00003297,-0.00004347,-0.00002928,0
 .00001355,0.00001329,-0.00003552,0.00005779,0.00004616,0.00003139,-0.0
 0005350,-0.00004453,-0.00000364,0.00000423,0.00001547,0.00001503,0.000
 00085,0.00001122,-0.00001691,0.00000762,0.00001838,0.00064438,0.000778
 29,-0.00018089,0.00247725,0.00270167,-0.00350050,-0.01912145,-0.022326
 47,-0.03435877,-0.07729154,-0.08716423,-0.11291371,-0.00001067,-0.0000
 0750,-0.00001760,-0.00000671,-0.00001141,-0.00001658,0.00002274,0.0000
 2297,-0.00002853,-0.00007026,-0.00007276,-0.00010869,-0.00001298,-0.00
 001649,0.00002319,0.00000093,-0.00000127,0.00000135,-0.00000179,-0.000
 00244,0.00000097,-0.00000244,-0.00000111,0.00000091,0.00000131,0.00000
 104,-0.00000144,0.00000474,0.00000965,0.00000418,0.00000707,-0.0000026
 9,0.00000195,-0.00000400,-0.00000272,-0.00000016,-0.00000284,0.0000052
 8,-0.00000095,0.00000937,-0.00002005,-0.00001474,0.00000368,-0.0000030
 4,0.00000675,-0.00001326,0.00001261,-0.00000082,-0.00000931,0.00000576
 ,-0.00000013,-0.00000184,0.00000044,0.00000345,-0.00000454,-0.00000798
 ,-0.00002917,-0.00003777,-0.00003374,0.00056003,0.08748791,0.09950253,
 0.14140724,0.00003332,0.00002562,-0.00010174,-0.00020930,-0.00021479,0
 .00016476,-0.00002388,0.00015581,-0.00031096,0.00009852,0.00013706,0.0
 0007960,0.00000157,0.00000209,0.00025688,-0.00015152,-0.00041195,-0.00
 004397,0.00008613,-0.00002102,0.00018652,-0.00042104,-0.00000791,-0.00
 050021,0.00038559,0.00025768,0.00039306,0.00008350,0.00001150,0.000031
 18,-0.00000360,-0.00001213,0.00002178,0.00001046,-0.00000242,0.0000139
 4,0.00001340,0.00001034,-0.00000211,0.00000521,-0.00000053,-0.00000841
 ,0.00003013,0.00002492,-0.00002560,-0.00008907,-0.00003065,-0.00005468
 ,-0.00006484,0.00019016,0.00008578,0.00004243,-0.00008575,-0.00000186,
 0.00005542,-0.00021678,-0.00011811,-0.00008148,0.00019304,0.00012364,0
 .00000686,-0.00003634,-0.00005477,-0.00000530,-0.00003095,-0.00002207,
 0.00010715,-0.00006114,-0.00005727,0.00023945,0.00085819,-0.00016045,0
 .00022921,0.00054295,-0.00022634,0.00391221,-0.00992513,0.00392711,-0.
 06671016,0.06290175,-0.01473813,0.00000637,0.00000748,0.00002576,0.000
 00296,0.00000411,0.00002349,-0.00000822,-0.00001486,0.00000776,0.00001
 132,-0.00000712,0.00001555,-0.00002591,0.00001093,0.00005165,-0.000010
 70,-0.00001053,0.00000064,0.00000540,0.00000473,-0.00000251,0.00000501
 ,0.00000336,0.00000111,0.00000418,0.00000194,0.00000639,0.00001703,-0.
 00000985,0.00001873,-0.00002401,0.00000697,-0.00001022,0.00000160,0.00
 000466,0.00000678,0.00001225,-0.00001142,0.00000545,-0.00001680,0.0000
 2853,0.00002414,-0.00001056,0.00000726,-0.00001833,0.00001276,-0.00001
 864,0.00001004,0.00001738,-0.00001445,0.00000810,-0.00004136,0.0000045
 7,-0.00000519,0.00000088,0.00009662,0.00007241,-0.00134988,-0.00018753
 ,-0.00077684,0.00558037,-0.01744177,0.00459069,0.06523312,0.00009571,0
 .00005886,-0.00021398,-0.00027855,-0.00012252,0.00010234,0.00049216,0.
 00012335,0.00016446,0.00011635,0.00012508,-0.00009505,0.00006812,-0.00
 004162,0.00039607,0.00024848,-0.00032392,-0.00069094,0.00007252,0.0002
 0188,-0.00012974,0.00014140,-0.00005127,0.00037123,-0.00006963,0.00000
 574,-0.00018679,-0.00001220,0.00001078,-0.00001442,0.00000829,-0.00000
 418,0.00001148,0.00000135,0.00000354,-0.00000765,-0.00000002,0.0000013
 6,0.00000209,0.00000161,0.00000748,-0.00001138,-0.00001299,-0.00001800
 ,0.00002634,0.00001253,0.00001701,-0.00002126,-0.00003067,-0.00006969,
 0.00000312,0.00002829,0.00003343,-0.00000538,0.00002040,0.00006794,0.0
 0000766,-0.00001120,-0.00004450,0.00000284,0.00000172,0.00001308,0.000
 00455,-0.00002122,0.00001285,0.00000077,-0.00003131,0.00001730,-0.0000
 0171,-0.00029533,-0.00016280,0.00093994,-0.00152651,-0.00019164,-0.001
 81258,-0.00192147,-0.00042353,0.01116528,0.06309571,-0.28459056,0.0519
 9270,-0.00000665,0.00002507,0.00004669,0.00001289,-0.00000169,0.000035
 93,-0.00000541,-0.00001704,0.00000275,0.00000982,0.00001746,0.00003571
 ,-0.00005088,0.00006097,-0.00003593,0.00000196,0.00000528,-0.00000251,
 0.00000344,0.00000228,-0.00000101,0.00000184,0.00000069,-0.00000143,-0
 .00000316,-0.00000291,-0.00000095,-0.00001121,-0.00001075,-0.00000824,
 0.00000130,-0.00000052,0.00000393,0.00000774,0.00000310,-0.00000515,-0
 .00000502,0.00000011,-0.00000101,0.00000382,-0.00000194,-0.00000342,0.
 00000696,0.00000220,-0.00000039,-0.00000323,0.00000152,-0.00000797,-0.
 00001435,0.00000623,-0.00000239,0.00002882,0.00000527,-0.00000031,0.00
 001636,-0.00003957,0.00001098,-0.00081574,0.00046670,-0.00088395,0.006
 17118,-0.01602316,0.00351149,-0.06554732,0.30504058,-0.00009904,-0.000
 10833,0.00016005,-0.00016532,-0.00009162,-0.00007056,0.00055701,-0.000
 46687,-0.00168468,0.00073544,0.00066953,0.00033632,-0.00052804,-0.0006
 0621,0.00050684,0.00018548,-0.00049978,-0.00083308,-0.00007304,-0.0000
 1450,0.00012326,-0.00012163,0.00007404,-0.00027685,0.00018517,0.000023
 08,0.00011780,0.00001615,-0.00001287,0.00002541,-0.00000329,0.00000269
 ,0.00000716,-0.00000251,-0.00000431,-0.00000322,-0.00000376,0.00000001
 ,0.00000479,0.00000417,-0.00000344,0.00000489,-0.00000168,0.00000930,-
 0.00001710,-0.00000117,-0.00002195,0.00002853,0.00005400,-0.00001430,-
 0.00005578,-0.00002418,0.00000235,0.00002509,-0.00002852,0.00005125,0.
 00004993,0.00003274,-0.00004768,-0.00005747,-0.00000418,0.00000504,0.0
 0002011,0.00001195,-0.00000308,0.00001517,-0.00002334,0.00001666,0.000
 02543,-0.00053457,-0.00082655,0.00090628,0.00280176,0.00543121,0.00579
 302,-0.00675776,0.03440747,-0.02722394,-0.01313634,0.04596058,-0.05992
 913,-0.00000730,-0.00002352,-0.00003945,-0.00001256,0.00000333,-0.0000
 4282,0.00000882,0.00001724,0.00000372,-0.00004870,0.00004221,-0.000030
 30,-0.00006599,0.00003314,0.00001793,-0.00000091,0.00000043,0.00000184
 ,-0.00000008,-0.00000074,0.00000049,-0.00000121,-0.00000085,0.00000047
 ,0.00000183,0.00000086,-0.00000094,0.00000766,0.00001006,0.00000615,0.
 00000930,-0.00000168,0.00000318,-0.00000439,-0.00000236,-0.00000126,-0
 .00000294,0.00000448,-0.00000142,0.00001027,-0.00000707,-0.00000644,0.
 00000570,-0.00000322,0.00000779,-0.00000375,0.00000748,-0.00000219,-0.
 00001402,0.00000864,-0.00000702,0.00000495,-0.00000003,0.00000412,-0.0
 0000109,-0.00003403,-0.00003275,-0.00167199,0.00002642,-0.00087350,0.0
 0521220,-0.01437073,0.00532860,0.01355654,-0.06437121,0.07457393,0.000
 05772,0.00011230,-0.00024488,-0.00008819,-0.00029130,0.00011043,0.0001
 3170,0.00052533,0.00036077,0.00003157,0.00006048,-0.00013958,0.0000736
 0,0.00013556,0.00036466,-0.00030956,0.00011394,-0.00057970,0.00015024,
 0.00011884,-0.00013193,0.00008487,-0.00006505,0.00037403,-0.00005538,-
 0.00007963,-0.00022056,-0.00001014,0.00002093,-0.00001545,0.00000702,-
 0.00000855,0.00000539,0.00001021,0.00000028,-0.00000258,0.00000919,0.0
 0000275,-0.00000503,-0.00000310,0.00000370,-0.00001103,0.00001652,-0.0
 0001706,0.00002033,-0.00001832,0.00002051,-0.00003560,-0.00007002,0.00
 014917,0.00021373,0.00003410,-0.00004139,-0.00009470,0.00006068,-0.000
 19710,-0.00018057,-0.00002518,0.00013615,0.00014895,-0.00000172,-0.000
 02308,-0.00004105,-0.00001268,-0.00002216,-0.00004182,-0.00017500,0.00
 000742,-0.00008834,-0.00001842,-0.00029955,0.00106237,-0.00051911,-0.0
 0194576,-0.00230626,-0.00117537,-0.00167717,0.01304021,-0.29219662,0.0
 4470169,0.04093573,-0.00000417,0.00001558,0.00003762,0.00003107,-0.000
 00420,0.00005190,-0.00001821,-0.00000826,0.00000215,0.00001437,0.00001
 552,0.00004288,0.00003832,-0.00001931,-0.00003442,-0.00000457,0.000010
 74,0.00000070,0.00000124,0.00000510,0.00000093,0.00000057,0.00000308,-
 0.00000018,-0.00000267,0.00000200,0.00000256,-0.00000792,-0.00002186,-
 0.00001067,-0.00001902,0.00000416,-0.00001409,0.00000749,0.00000650,0.
 00000418,0.00001092,-0.00001063,0.00000724,-0.00000409,0.00004146,0.00
 006462,-0.00002019,0.00000595,-0.00002569,0.00001948,-0.00002288,0.000
 01583,0.00004628,-0.00000993,0.00001712,0.00000623,-0.00000434,0.00000
 536,0.00010168,0.00000843,0.00003369,0.00045501,-0.00037871,-0.0007827
 5,-0.01481954,0.00442937,0.00223446,-0.00700360,0.00000329,-0.00005782
 ,0.31518270,0.00002316,0.00003006,-0.00009746,-0.00020065,-0.00023359,
 0.00015992,0.00015123,0.00001754,-0.00038542,0.00018654,0.00017089,0.0
 0008672,-0.00005119,-0.00003919,0.00034328,-0.00040386,-0.00021651,-0.
 00021487,0.00007249,0.00003116,0.00004091,-0.00018333,-0.00010521,-0.0
 0014784,0.00003632,0.00020043,0.00015648,0.00003389,0.00000237,-0.0000
 0852,-0.00000336,-0.00000218,0.00001741,0.00000425,0.00000125,0.000010
 24,0.00000813,0.00000589,-0.00000195,0.00000046,0.00000461,-0.00000995
 ,0.00001103,0.00000637,-0.00000346,-0.00004709,-0.00001754,-0.00004833
 ,-0.00003857,0.00004383,-0.00003826,0.00003846,-0.00004104,0.00004560,
 0.00004522,-0.00008462,0.00000821,-0.00004718,0.00008541,0.00002910,0.
 00000540,-0.00000828,-0.00000645,-0.00000388,-0.00000792,0.00000072,0.
 00000801,-0.00007317,-0.00001984,0.00071410,0.00033182,0.00008590,0.00
 074878,0.00027427,-0.00014010,-0.00910953,0.00280771,0.00333437,0.0442
 6322,-0.05784772,-0.00812312,0.00000441,0.00000757,0.00001821,0.000005
 40,0.00000340,0.00002662,-0.00001238,-0.00000971,0.00000656,-0.0000069
 2,0.00001184,0.00001424,0.00001264,-0.00002444,0.00004432,-0.00000162,
 -0.00001166,-0.00000135,0.00000446,0.00000244,-0.00000266,0.00000453,0
 .00000186,0.00000041,0.00000159,-0.00000068,0.00000335,0.00000789,-0.0
 0000618,0.00001051,-0.00000478,0.00000495,0.00000006,-0.00000278,0.000
 00228,0.00000112,0.00000507,-0.00000930,0.00000061,-0.00001403,0.00003
 576,0.00000063,-0.00000773,-0.00000183,-0.00000289,0.00001992,-0.00002
 031,0.00000698,0.00008849,-0.00004814,0.00003880,-0.00006083,0.0000004
 1,-0.00001288,-0.00003110,0.00019905,-0.00002439,0.00020751,-0.0014336
 9,-0.00066752,-0.01979820,0.00463557,0.00417190,0.02882869,-0.00419536
 ,-0.00527057,-0.04551232,0.05551952,-0.00009610,-0.00009996,0.00015998
 ,-0.00007655,-0.00018342,-0.00007419,-0.00050923,0.00049884,-0.0016919
 7,0.00055828,0.00082887,0.00030803,-0.00058102,-0.00056195,0.00050529,
 -0.00038013,0.00011299,-0.00082415,-0.00006316,-0.00007275,0.00007752,
 -0.00001158,0.00005573,-0.00013417,0.00001190,-0.00005663,0.00009289,-
 0.00001132,-0.00000137,0.00001558,0.00000540,-0.00000169,-0.00000850,-
 0.00000809,0.00000212,-0.00000303,-0.00000688,-0.00000768,0.00000586,0
 .00000246,0.00000265,0.00000793,-0.00002098,-0.00000901,-0.00001245,0.
 00003053,-0.00000690,0.00003553,0.00007664,-0.00013677,-0.00014635,-0.
 00002500,0.00004382,0.00005867,-0.00002367,0.00018097,0.00014683,0.000
 09030,-0.00015168,-0.00012985,-0.00000984,0.00003839,0.00006877,-0.000
 01723,0.00002867,0.00002577,-0.00024742,0.00007777,-0.00001614,-0.0008
 7499,-0.00057001,0.00095607,0.00494195,0.00363285,0.00588799,0.0362401
 8,-0.00489932,-0.02592167,0.03580027,-0.00740585,-0.05539116,0.0000031
 7,-0.00001329,-0.00004013,-0.00001891,-0.00000968,-0.00003954,0.000013
 73,0.00001070,0.00000387,0.00005902,-0.00005268,-0.00002850,0.00004174
 ,-0.00006476,0.00001040,0.00000110,0.00000148,0.00000036,-0.00000163,-
 0.00000143,0.00000064,-0.00000146,-0.00000149,0.00000023,0.00000002,-0
 .00000127,-0.00000249,0.00000107,0.00001376,0.00000041,0.00002778,-0.0
 0000499,0.00001190,-0.00000287,-0.00000294,-0.00000646,-0.00001097,0.0
 0000626,-0.00000677,0.00003903,-0.00003202,-0.00002503,0.00001890,-0.0
 0000668,0.00001777,-0.00001019,0.00001376,-0.00000979,0.00001935,-0.00
 001020,0.00001457,0.00008714,0.00000223,0.00002302,-0.00011713,-0.0000
 6445,-0.00009606,0.00035028,-0.00144910,-0.00078438,-0.01473105,0.0040
 8507,0.00455771,-0.00646969,-0.00032159,0.00309157,-0.05409312,0.00656
 466,0.06930762\\0.00000507,-0.00000032,0.00000734,-0.00000942,0.000001
 79,-0.00000571,0.00000995,0.00000977,0.00000444,-0.00000527,-0.0000078
 1,0.00000227,-0.00000136,0.00000118,-0.00000669,-0.00001459,-0.0000065
 6,0.00002210,-0.00001258,0.00001129,-0.00001566,-0.00000158,-0.0000192
 1,-0.00001472,0.00000677,0.00000495,0.00001290,-0.00000467,0.00000654,
 0.00001066,0.00000172,-0.00000003,0.00000191,0.00000058,-0.00000100,-0
 .00000293,0.00000082,-0.00000021,0.00000136,0.00000220,-0.00000078,0.0
 0000090,-0.00000028,-0.00000093,-0.00000435,0.00002138,0.00001567,0.00
 001390,0.00000443,-0.00001468,0.00000536,-0.00000435,0.00000580,-0.000
 01265,-0.00000371,0.00001828,0.00000109,0.00002426,-0.00003805,0.00001
 428,-0.00000667,0.00001815,-0.00000735,0.00000785,0.00000118,0.0000001
 0,-0.00000022,0.00000132,-0.00000438,0.00001424,0.00000349,-0.00001229
 ,0.00000362,0.00000558,0.00000666,-0.00000226,-0.00000980,0.00000279,-
 0.00000291,0.00000361,-0.00001098,-0.00000173,-0.00000165,-0.00000203,
 0.00000116,0.00000208,-0.00000182,-0.00000067,-0.00000083,0.00000073,0
 .00000051,-0.00000018,0.00000166,0.00000182,-0.00000067,-0.00000356,0.
 00000183,0.00000146,-0.00000122,-0.00000063,-0.00000019,-0.00000032,0.
 00000021,-0.00000054,-0.00000080,-0.00000287,-0.00000179,-0.00000009,-
 0.00000392,-0.00000738,-0.00000484,0.00000335,-0.00000225,0.00000109,-
 0.00000098,-0.00000199,0.00000008,-0.00000239,-0.00000178,0.00000227,-
 0.00000789,0.00000264,-0.00000423,-0.00000250,-0.00000039,-0.00000191,
 -0.00000626,0.00000313,-0.00000055,-0.00000158,0.00000002,-0.00000056,
 -0.00000160,0.00000006,0.00000191,-0.00000869,0.00000227,-0.00000330,0
 .00000194,0.00000239,0.00000722,0.00000006,-0.00000032,-0.00000261,0.0
 0000061,-0.00000009,0.00000267,-0.00000281,-0.00000323,-0.00000016\\\@
 The archive entry for this job was punched.


 THE 2ND LAW OF THERMODYNAMICS HAS THE SAME
 DEGREE OF TRUTH AS THE STATEMENT THAT IF YOU THROW
 A TUMBLERFULL OF WATER INTO THE SEA, YOU CANNOT GET
 THE SAME TUMBLERFULL OF WATER OUT AGAIN.
          - J.C. MAXWELL, LETTER TO LORD RAYLEIGH, DECEMBER 6,1870
 Job cpu time:       1 days 15 hours  3 minutes  3.8 seconds.
 Elapsed time:       0 days  1 hours 31 minutes 21.4 seconds.
 File lengths (MBytes):  RWF=   2382 Int=      0 D2E=      0 Chk=     53 Scr=      1
 Normal termination of Gaussian 16 at Tue Dec  5 02:23:42 2023.
