 Entering Gaussian System, Link 0=g16
 Input=/home/exlonk/in_progress/4105.inp
 Output=/home/exlonk/in_progress/4105.log
 Initial command:
 /opt/gaussian/g16-c01/g16/l1.exe "/lustre/tmp/slurm/2183013/Gau-1447626.inp" -scrdir="/lustre/tmp/slurm/2183013/"
 Default CPUs for threads: 0-3,7-9,13-15,19-20,24-27,31-33,37-39,42-45
 Default is to use a total of  26 processors:
                               26 via shared-memory
                                1 via Linda
 Entering Link 1 = /opt/gaussian/g16-c01/g16/l1.exe PID=   1447627.
  
 Copyright (c) 1988-2019, Gaussian, Inc.  All Rights Reserved.
  
 This is part of the Gaussian(R) 16 program.  It is based on
 the Gaussian(R) 09 system (copyright 2009, Gaussian, Inc.),
 the Gaussian(R) 03 system (copyright 2003, Gaussian, Inc.),
 the Gaussian(R) 98 system (copyright 1998, Gaussian, Inc.),
 the Gaussian(R) 94 system (copyright 1995, Gaussian, Inc.),
 the Gaussian 92(TM) system (copyright 1992, Gaussian, Inc.),
 the Gaussian 90(TM) system (copyright 1990, Gaussian, Inc.),
 the Gaussian 88(TM) system (copyright 1988, Gaussian, Inc.),
 the Gaussian 86(TM) system (copyright 1986, Carnegie Mellon
 University), and the Gaussian 82(TM) system (copyright 1983,
 Carnegie Mellon University). Gaussian is a federally registered
 trademark of Gaussian, Inc.
  
 This software contains proprietary and confidential information,
 including trade secrets, belonging to Gaussian, Inc.
  
 This software is provided under written license and may be
 used, copied, transmitted, or stored only in accord with that
 written license.
  
 The following legend is applicable only to US Government
 contracts under FAR:
  
                    RESTRICTED RIGHTS LEGEND
  
 Use, reproduction and disclosure by the US Government is
 subject to restrictions as set forth in subparagraphs (a)
 and (c) of the Commercial Computer Software - Restricted
 Rights clause in FAR 52.227-19.
  
 Gaussian, Inc.
 340 Quinnipiac St., Bldg. 40, Wallingford CT 06492
  
  
 ---------------------------------------------------------------
 Warning -- This program may not be used in any manner that
 competes with the business of Gaussian, Inc. or will provide
 assistance to any competitor of Gaussian, Inc.  The licensee
 of this program is prohibited from giving any competitor of
 Gaussian, Inc. access to this program.  By using this program,
 the user acknowledges that Gaussian, Inc. is engaged in the
 business of creating and licensing software in the field of
 computational chemistry and represents and warrants to the
 licensee that it is not a competitor of Gaussian, Inc. and that
 it will not use this program in any manner prohibited above.
 ---------------------------------------------------------------
  

 Cite this work as:
 Gaussian 16, Revision C.01,
 M. J. Frisch, G. W. Trucks, H. B. Schlegel, G. E. Scuseria, 
 M. A. Robb, J. R. Cheeseman, G. Scalmani, V. Barone, 
 G. A. Petersson, H. Nakatsuji, X. Li, M. Caricato, A. V. Marenich, 
 J. Bloino, B. G. Janesko, R. Gomperts, B. Mennucci, H. P. Hratchian, 
 J. V. Ortiz, A. F. Izmaylov, J. L. Sonnenberg, D. Williams-Young, 
 F. Ding, F. Lipparini, F. Egidi, J. Goings, B. Peng, A. Petrone, 
 T. Henderson, D. Ranasinghe, V. G. Zakrzewski, J. Gao, N. Rega, 
 G. Zheng, W. Liang, M. Hada, M. Ehara, K. Toyota, R. Fukuda, 
 J. Hasegawa, M. Ishida, T. Nakajima, Y. Honda, O. Kitao, H. Nakai, 
 T. Vreven, K. Throssell, J. A. Montgomery, Jr., J. E. Peralta, 
 F. Ogliaro, M. J. Bearpark, J. J. Heyd, E. N. Brothers, K. N. Kudin, 
 V. N. Staroverov, T. A. Keith, R. Kobayashi, J. Normand, 
 K. Raghavachari, A. P. Rendell, J. C. Burant, S. S. Iyengar, 
 J. Tomasi, M. Cossi, J. M. Millam, M. Klene, C. Adamo, R. Cammi, 
 J. W. Ochterski, R. L. Martin, K. Morokuma, O. Farkas, 
 J. B. Foresman, and D. J. Fox, Gaussian, Inc., Wallingford CT, 2019.
 
 ******************************************
 Gaussian 16:  EM64L-G16RevC.01  3-Jul-2019
                 5-Dec-2023 
 ******************************************
 %nproc=26
 Will use up to   26 processors via shared memory.
 %mem=16GB
 %chk=/home/exlonk/in_progress/4105.chk
 ------------------------------
 #p MN15/6-311++G(d,p) opt freq
 ------------------------------
 1/18=20,19=15,26=3,38=1/1,3;
 2/9=110,12=2,17=6,18=5,40=1/2;
 3/5=4,6=6,7=1111,11=2,25=1,30=1,71=1,74=-73/1,2,3;
 4//1;
 5/5=2,38=5/2;
 6/7=2,8=2,9=2,10=2,28=1/1;
 7//1,2,3,16;
 1/18=20,19=15,26=3/3(2);
 2/9=110/2;
 99//99;
 2/9=110/2;
 3/5=4,6=6,7=1111,11=2,25=1,30=1,71=1,74=-73/1,2,3;
 4/5=5,16=3,69=1/1;
 5/5=2,38=5/2;
 7//1,2,3,16;
 1/18=20,19=15,26=3/3(-5);
 2/9=110/2;
 6/7=2,8=2,9=2,10=2,19=2,28=1/1;
 99/9=1/99;
 Leave Link    1 at Tue Dec  5 18:01:02 2023, MaxMem=  2147483648 cpu:               7.9 elap:               0.3
 (Enter /opt/gaussian/g16-c01/g16/l101.exe)
 ---------------
 name file: 4105
 ---------------
 Symbolic Z-matrix:
 Charge =  0 Multiplicity = 1
 S                    -2.7475   -0.1155   -0.5706 
 S                    -6.5909    1.5514    0.187 
 N                    -0.2717    0.2377    0.3602 
 C                     1.9071    0.5679    0.0196 
 C                     1.6572   -0.8406    0.0627 
 C                     4.1759    3.5854   -0.3431 
 C                     2.7471   -4.47     -0.0968 
 C                     0.6849    1.2135    0.2082 
 C                     0.2897   -1.0146    0.2764 
 C                     2.9546    2.7493   -0.1502 
 C                     1.8896   -3.2551    0.0336 
 C                     3.0642    1.3542   -0.1631 
 C                     2.4716   -1.9859   -0.061 
 C                     0.5595    2.6074    0.2237 
 C                    -0.3068   -2.277     0.373 
 C                     1.7197    3.3645    0.0405 
 C                     0.5206   -3.3961    0.2474 
 C                     4.4289    4.5076    0.8891 
 C                     4.0402    4.5022   -1.5978 
 C                     5.507     2.7901   -0.5496 
 C                     4.2686   -4.1941   -0.3334 
 C                     2.2929   -5.355    -1.2981 
 C                     2.679    -5.3499    1.1893 
 C                    -1.6195    0.4837    0.57 
 C                    -2.235     1.1655    1.5967 
 C                    -4.0644    0.5366    0.3084 
 C                    -3.6514    1.1959    1.4451 
 C                    -5.3963    0.3725   -0.1525 
 C                    -5.9007   -0.6777   -0.8878 
 C                    -7.2862   -0.512    -1.1762 
 C                    -7.7879    0.6582   -0.6505 
 H                     4.0042    0.8359   -0.3081 
 H                     3.531    -1.8317   -0.2266 
 H                    -0.3961    3.1008    0.3645 
 H                    -1.365    -2.4133    0.5644 
 H                     1.6255    4.4474    0.0506 
 H                     0.0612   -4.3781    0.3272 
 H                     4.5377    3.9135    1.8041 
 H                     3.6063    5.2132    1.0492 
 H                     5.3423    5.1004    0.7624 
 H                     3.2079    5.208    -1.5022 
 H                     3.8645    3.904    -2.4997 
 H                     4.9485    5.0945   -1.7587 
 H                     5.4624    2.1555   -1.4423 
 H                     5.7379    2.1598    0.3172 
 H                     6.3563    3.4712   -0.6841 
 H                     4.7097   -3.6318    0.4979 
 H                     4.4368   -3.6362   -1.262 
 H                     4.8308   -5.1321   -0.4183 
 H                     2.3259   -4.7863   -2.2349 
 H                     1.2692   -5.724    -1.1716 
 H                     2.94     -6.2322   -1.414 
 H                     1.6657   -5.7198    1.3801 
 H                     2.9932   -4.7772    2.0698 
 H                     3.3322   -6.2264    1.1074 
 H                    -1.7028    1.6187    2.4237 
 H                    -4.3136    1.677     2.1543 
 H                    -5.3266   -1.5385   -1.208 
 H                    -7.885    -1.2163   -1.739 
 H                    -8.8002    1.031    -0.7177 
 
 ITRead=  0  0  0  0  0  0  0  0  0  0  0  0  0  0  0  0  0  0  0  0
 ITRead=  0  0  0  0  0  0  0  0  0  0  0  0  0  0  0  0  0  0  0  0
 ITRead=  0  0  0  0  0  0  0  0  0  0  0  0  0  0  0  0  0  0  0  0
 MicOpt= -1 -1 -1 -1 -1 -1 -1 -1 -1 -1 -1 -1 -1 -1 -1 -1 -1 -1 -1 -1
 MicOpt= -1 -1 -1 -1 -1 -1 -1 -1 -1 -1 -1 -1 -1 -1 -1 -1 -1 -1 -1 -1
 MicOpt= -1 -1 -1 -1 -1 -1 -1 -1 -1 -1 -1 -1 -1 -1 -1 -1 -1 -1 -1 -1
 NAtoms=     60 NQM=       60 NQMF=       0 NMMI=      0 NMMIF=      0
                NMic=       0 NMicF=      0.
                    Isotopes and Nuclear Properties:
 (Nuclear quadrupole moments (NQMom) in fm**2, nuclear magnetic moments (NMagM)
  in nuclear magnetons)

  Atom         1           2           3           4           5           6           7           8           9          10
 IAtWgt=          32          32          14          12          12          12          12          12          12          12
 AtmWgt=  31.9720718  31.9720718  14.0030740  12.0000000  12.0000000  12.0000000  12.0000000  12.0000000  12.0000000  12.0000000
 NucSpn=           0           0           2           0           0           0           0           0           0           0
 AtZEff=  -0.0000000  -0.0000000  -0.0000000  -0.0000000  -0.0000000  -0.0000000  -0.0000000  -0.0000000  -0.0000000  -0.0000000
 NQMom=    0.0000000   0.0000000   2.0440000   0.0000000   0.0000000   0.0000000   0.0000000   0.0000000   0.0000000   0.0000000
 NMagM=    0.0000000   0.0000000   0.4037610   0.0000000   0.0000000   0.0000000   0.0000000   0.0000000   0.0000000   0.0000000
 AtZNuc=  16.0000000  16.0000000   7.0000000   6.0000000   6.0000000   6.0000000   6.0000000   6.0000000   6.0000000   6.0000000

  Atom        11          12          13          14          15          16          17          18          19          20
 IAtWgt=          12          12          12          12          12          12          12          12          12          12
 AtmWgt=  12.0000000  12.0000000  12.0000000  12.0000000  12.0000000  12.0000000  12.0000000  12.0000000  12.0000000  12.0000000
 NucSpn=           0           0           0           0           0           0           0           0           0           0
 AtZEff=  -0.0000000  -0.0000000  -0.0000000  -0.0000000  -0.0000000  -0.0000000  -0.0000000  -0.0000000  -0.0000000  -0.0000000
 NQMom=    0.0000000   0.0000000   0.0000000   0.0000000   0.0000000   0.0000000   0.0000000   0.0000000   0.0000000   0.0000000
 NMagM=    0.0000000   0.0000000   0.0000000   0.0000000   0.0000000   0.0000000   0.0000000   0.0000000   0.0000000   0.0000000
 AtZNuc=   6.0000000   6.0000000   6.0000000   6.0000000   6.0000000   6.0000000   6.0000000   6.0000000   6.0000000   6.0000000

  Atom        21          22          23          24          25          26          27          28          29          30
 IAtWgt=          12          12          12          12          12          12          12          12          12          12
 AtmWgt=  12.0000000  12.0000000  12.0000000  12.0000000  12.0000000  12.0000000  12.0000000  12.0000000  12.0000000  12.0000000
 NucSpn=           0           0           0           0           0           0           0           0           0           0
 AtZEff=  -0.0000000  -0.0000000  -0.0000000  -0.0000000  -0.0000000  -0.0000000  -0.0000000  -0.0000000  -0.0000000  -0.0000000
 NQMom=    0.0000000   0.0000000   0.0000000   0.0000000   0.0000000   0.0000000   0.0000000   0.0000000   0.0000000   0.0000000
 NMagM=    0.0000000   0.0000000   0.0000000   0.0000000   0.0000000   0.0000000   0.0000000   0.0000000   0.0000000   0.0000000
 AtZNuc=   6.0000000   6.0000000   6.0000000   6.0000000   6.0000000   6.0000000   6.0000000   6.0000000   6.0000000   6.0000000

  Atom        31          32          33          34          35          36          37          38          39          40
 IAtWgt=          12           1           1           1           1           1           1           1           1           1
 AtmWgt=  12.0000000   1.0078250   1.0078250   1.0078250   1.0078250   1.0078250   1.0078250   1.0078250   1.0078250   1.0078250
 NucSpn=           0           1           1           1           1           1           1           1           1           1
 AtZEff=  -0.0000000  -0.0000000  -0.0000000  -0.0000000  -0.0000000  -0.0000000  -0.0000000  -0.0000000  -0.0000000  -0.0000000
 NQMom=    0.0000000   0.0000000   0.0000000   0.0000000   0.0000000   0.0000000   0.0000000   0.0000000   0.0000000   0.0000000
 NMagM=    0.0000000   2.7928460   2.7928460   2.7928460   2.7928460   2.7928460   2.7928460   2.7928460   2.7928460   2.7928460
 AtZNuc=   6.0000000   1.0000000   1.0000000   1.0000000   1.0000000   1.0000000   1.0000000   1.0000000   1.0000000   1.0000000

  Atom        41          42          43          44          45          46          47          48          49          50
 IAtWgt=           1           1           1           1           1           1           1           1           1           1
 AtmWgt=   1.0078250   1.0078250   1.0078250   1.0078250   1.0078250   1.0078250   1.0078250   1.0078250   1.0078250   1.0078250
 NucSpn=           1           1           1           1           1           1           1           1           1           1
 AtZEff=  -0.0000000  -0.0000000  -0.0000000  -0.0000000  -0.0000000  -0.0000000  -0.0000000  -0.0000000  -0.0000000  -0.0000000
 NQMom=    0.0000000   0.0000000   0.0000000   0.0000000   0.0000000   0.0000000   0.0000000   0.0000000   0.0000000   0.0000000
 NMagM=    2.7928460   2.7928460   2.7928460   2.7928460   2.7928460   2.7928460   2.7928460   2.7928460   2.7928460   2.7928460
 AtZNuc=   1.0000000   1.0000000   1.0000000   1.0000000   1.0000000   1.0000000   1.0000000   1.0000000   1.0000000   1.0000000

  Atom        51          52          53          54          55          56          57          58          59          60
 IAtWgt=           1           1           1           1           1           1           1           1           1           1
 AtmWgt=   1.0078250   1.0078250   1.0078250   1.0078250   1.0078250   1.0078250   1.0078250   1.0078250   1.0078250   1.0078250
 NucSpn=           1           1           1           1           1           1           1           1           1           1
 AtZEff=  -0.0000000  -0.0000000  -0.0000000  -0.0000000  -0.0000000  -0.0000000  -0.0000000  -0.0000000  -0.0000000  -0.0000000
 NQMom=    0.0000000   0.0000000   0.0000000   0.0000000   0.0000000   0.0000000   0.0000000   0.0000000   0.0000000   0.0000000
 NMagM=    2.7928460   2.7928460   2.7928460   2.7928460   2.7928460   2.7928460   2.7928460   2.7928460   2.7928460   2.7928460
 AtZNuc=   1.0000000   1.0000000   1.0000000   1.0000000   1.0000000   1.0000000   1.0000000   1.0000000   1.0000000   1.0000000
 Leave Link  101 at Tue Dec  5 18:01:02 2023, MaxMem=  2147483648 cpu:               9.0 elap:               0.4
 (Enter /opt/gaussian/g16-c01/g16/l103.exe)

 GradGradGradGradGradGradGradGradGradGradGradGradGradGradGradGradGradGrad
 Berny optimization.
 Initialization pass.
                           ----------------------------
                           !    Initial Parameters    !
                           ! (Angstroms and Degrees)  !
 --------------------------                            --------------------------
 ! Name  Definition              Value          Derivative Info.                !
 --------------------------------------------------------------------------------
 ! R1    R(1,24)                 1.7124         estimate D2E/DX2                !
 ! R2    R(1,26)                 1.7123         estimate D2E/DX2                !
 ! R3    R(2,28)                 1.7123         estimate D2E/DX2                !
 ! R4    R(2,31)                 1.7123         estimate D2E/DX2                !
 ! R5    R(3,8)                  1.3749         estimate D2E/DX2                !
 ! R6    R(3,9)                  1.3749         estimate D2E/DX2                !
 ! R7    R(3,24)                 1.386          estimate D2E/DX2                !
 ! R8    R(4,5)                  1.4311         estimate D2E/DX2                !
 ! R9    R(4,8)                  1.395          estimate D2E/DX2                !
 ! R10   R(4,12)                 1.4109         estimate D2E/DX2                !
 ! R11   R(5,9)                  1.395          estimate D2E/DX2                !
 ! R12   R(5,13)                 1.4108         estimate D2E/DX2                !
 ! R13   R(6,10)                 1.4926         estimate D2E/DX2                !
 ! R14   R(6,18)                 1.5597         estimate D2E/DX2                !
 ! R15   R(6,19)                 1.5599         estimate D2E/DX2                !
 ! R16   R(6,20)                 1.5643         estimate D2E/DX2                !
 ! R17   R(7,11)                 1.4927         estimate D2E/DX2                !
 ! R18   R(7,21)                 1.5643         estimate D2E/DX2                !
 ! R19   R(7,22)                 1.5597         estimate D2E/DX2                !
 ! R20   R(7,23)                 1.5598         estimate D2E/DX2                !
 ! R21   R(8,14)                 1.3996         estimate D2E/DX2                !
 ! R22   R(9,15)                 1.3996         estimate D2E/DX2                !
 ! R23   R(10,12)                1.3995         estimate D2E/DX2                !
 ! R24   R(10,16)                1.3928         estimate D2E/DX2                !
 ! R25   R(11,13)                1.3995         estimate D2E/DX2                !
 ! R26   R(11,17)                1.3927         estimate D2E/DX2                !
 ! R27   R(12,32)                1.0832         estimate D2E/DX2                !
 ! R28   R(13,33)                1.0833         estimate D2E/DX2                !
 ! R29   R(14,16)                1.3974         estimate D2E/DX2                !
 ! R30   R(14,34)                1.0846         estimate D2E/DX2                !
 ! R31   R(15,17)                1.3974         estimate D2E/DX2                !
 ! R32   R(15,35)                1.084          estimate D2E/DX2                !
 ! R33   R(16,36)                1.087          estimate D2E/DX2                !
 ! R34   R(17,37)                1.0871         estimate D2E/DX2                !
 ! R35   R(18,38)                1.0964         estimate D2E/DX2                !
 ! R36   R(18,39)                1.0955         estimate D2E/DX2                !
 ! R37   R(18,40)                1.0963         estimate D2E/DX2                !
 ! R38   R(19,41)                1.0955         estimate D2E/DX2                !
 ! R39   R(19,42)                1.0964         estimate D2E/DX2                !
 ! R40   R(19,43)                1.0962         estimate D2E/DX2                !
 ! R41   R(20,44)                1.0962         estimate D2E/DX2                !
 ! R42   R(20,45)                1.0963         estimate D2E/DX2                !
 ! R43   R(20,46)                1.0969         estimate D2E/DX2                !
 ! R44   R(21,47)                1.0963         estimate D2E/DX2                !
 ! R45   R(21,48)                1.0963         estimate D2E/DX2                !
 ! R46   R(21,49)                1.0969         estimate D2E/DX2                !
 ! R47   R(22,50)                1.0964         estimate D2E/DX2                !
 ! R48   R(22,51)                1.0955         estimate D2E/DX2                !
 ! R49   R(22,52)                1.0962         estimate D2E/DX2                !
 ! R50   R(23,53)                1.0954         estimate D2E/DX2                !
 ! R51   R(23,54)                1.0964         estimate D2E/DX2                !
 ! R52   R(23,55)                1.0962         estimate D2E/DX2                !
 ! R53   R(24,25)                1.3776         estimate D2E/DX2                !
 ! R54   R(25,27)                1.4248         estimate D2E/DX2                !
 ! R55   R(25,56)                1.0828         estimate D2E/DX2                !
 ! R56   R(26,27)                1.3774         estimate D2E/DX2                !
 ! R57   R(26,28)                1.4189         estimate D2E/DX2                !
 ! R58   R(27,57)                1.083          estimate D2E/DX2                !
 ! R59   R(28,29)                1.3777         estimate D2E/DX2                !
 ! R60   R(29,30)                1.4249         estimate D2E/DX2                !
 ! R61   R(29,58)                1.0831         estimate D2E/DX2                !
 ! R62   R(30,31)                1.3775         estimate D2E/DX2                !
 ! R63   R(30,59)                1.0823         estimate D2E/DX2                !
 ! R64   R(31,60)                1.0809         estimate D2E/DX2                !
 ! A1    A(24,1,26)             91.8007         estimate D2E/DX2                !
 ! A2    A(28,2,31)             91.81           estimate D2E/DX2                !
 ! A3    A(8,3,9)              110.8299         estimate D2E/DX2                !
 ! A4    A(8,3,24)             124.5643         estimate D2E/DX2                !
 ! A5    A(9,3,24)             124.6057         estimate D2E/DX2                !
 ! A6    A(5,4,8)              107.3619         estimate D2E/DX2                !
 ! A7    A(5,4,12)             134.0758         estimate D2E/DX2                !
 ! A8    A(8,4,12)             118.5623         estimate D2E/DX2                !
 ! A9    A(4,5,9)              107.3703         estimate D2E/DX2                !
 ! A10   A(4,5,13)             134.0703         estimate D2E/DX2                !
 ! A11   A(9,5,13)             118.5594         estimate D2E/DX2                !
 ! A12   A(10,6,18)            111.2123         estimate D2E/DX2                !
 ! A13   A(10,6,19)            111.2232         estimate D2E/DX2                !
 ! A14   A(10,6,20)            115.3745         estimate D2E/DX2                !
 ! A15   A(18,6,19)            107.5811         estimate D2E/DX2                !
 ! A16   A(18,6,20)            105.4776         estimate D2E/DX2                !
 ! A17   A(19,6,20)            105.4655         estimate D2E/DX2                !
 ! A18   A(11,7,21)            115.3656         estimate D2E/DX2                !
 ! A19   A(11,7,22)            111.211          estimate D2E/DX2                !
 ! A20   A(11,7,23)            111.2237         estimate D2E/DX2                !
 ! A21   A(21,7,22)            105.4754         estimate D2E/DX2                !
 ! A22   A(21,7,23)            105.4662         estimate D2E/DX2                !
 ! A23   A(22,7,23)            107.5938         estimate D2E/DX2                !
 ! A24   A(3,8,4)              107.2207         estimate D2E/DX2                !
 ! A25   A(3,8,14)             130.0354         estimate D2E/DX2                !
 ! A26   A(4,8,14)             122.7439         estimate D2E/DX2                !
 ! A27   A(3,9,5)              107.2171         estimate D2E/DX2                !
 ! A28   A(3,9,15)             130.0391         estimate D2E/DX2                !
 ! A29   A(5,9,15)             122.7438         estimate D2E/DX2                !
 ! A30   A(6,10,12)            119.5477         estimate D2E/DX2                !
 ! A31   A(6,10,16)            119.7196         estimate D2E/DX2                !
 ! A32   A(12,10,16)           120.7327         estimate D2E/DX2                !
 ! A33   A(7,11,13)            119.5581         estimate D2E/DX2                !
 ! A34   A(7,11,17)            119.7135         estimate D2E/DX2                !
 ! A35   A(13,11,17)           120.7283         estimate D2E/DX2                !
 ! A36   A(4,12,10)            119.3511         estimate D2E/DX2                !
 ! A37   A(4,12,32)            117.5414         estimate D2E/DX2                !
 ! A38   A(10,12,32)           123.1074         estimate D2E/DX2                !
 ! A39   A(5,13,11)            119.3574         estimate D2E/DX2                !
 ! A40   A(5,13,33)            117.5412         estimate D2E/DX2                !
 ! A41   A(11,13,33)           123.1013         estimate D2E/DX2                !
 ! A42   A(8,14,16)            117.6279         estimate D2E/DX2                !
 ! A43   A(8,14,34)            122.2365         estimate D2E/DX2                !
 ! A44   A(16,14,34)           120.1342         estimate D2E/DX2                !
 ! A45   A(9,15,17)            117.6322         estimate D2E/DX2                !
 ! A46   A(9,15,35)            122.7976         estimate D2E/DX2                !
 ! A47   A(17,15,35)           119.5504         estimate D2E/DX2                !
 ! A48   A(10,16,14)           120.982          estimate D2E/DX2                !
 ! A49   A(10,16,36)           121.2072         estimate D2E/DX2                !
 ! A50   A(14,16,36)           117.8107         estimate D2E/DX2                !
 ! A51   A(11,17,15)           120.9788         estimate D2E/DX2                !
 ! A52   A(11,17,37)           121.2059         estimate D2E/DX2                !
 ! A53   A(15,17,37)           117.8145         estimate D2E/DX2                !
 ! A54   A(6,18,38)            110.7951         estimate D2E/DX2                !
 ! A55   A(6,18,39)            111.9913         estimate D2E/DX2                !
 ! A56   A(6,18,40)            111.3195         estimate D2E/DX2                !
 ! A57   A(38,18,39)           107.5514         estimate D2E/DX2                !
 ! A58   A(38,18,40)           107.8662         estimate D2E/DX2                !
 ! A59   A(39,18,40)           107.1117         estimate D2E/DX2                !
 ! A60   A(6,19,41)            111.9984         estimate D2E/DX2                !
 ! A61   A(6,19,42)            110.7891         estimate D2E/DX2                !
 ! A62   A(6,19,43)            111.3178         estimate D2E/DX2                !
 ! A63   A(41,19,42)           107.5513         estimate D2E/DX2                !
 ! A64   A(41,19,43)           107.1106         estimate D2E/DX2                !
 ! A65   A(42,19,43)           107.8683         estimate D2E/DX2                !
 ! A66   A(6,20,44)            111.5438         estimate D2E/DX2                !
 ! A67   A(6,20,45)            111.5394         estimate D2E/DX2                !
 ! A68   A(6,20,46)            111.0595         estimate D2E/DX2                !
 ! A69   A(44,20,45)           108.6394         estimate D2E/DX2                !
 ! A70   A(44,20,46)           106.9239         estimate D2E/DX2                !
 ! A71   A(45,20,46)           106.9087         estimate D2E/DX2                !
 ! A72   A(7,21,47)            111.5385         estimate D2E/DX2                !
 ! A73   A(7,21,48)            111.5368         estimate D2E/DX2                !
 ! A74   A(7,21,49)            111.0636         estimate D2E/DX2                !
 ! A75   A(47,21,48)           108.6358         estimate D2E/DX2                !
 ! A76   A(47,21,49)           106.9234         estimate D2E/DX2                !
 ! A77   A(48,21,49)           106.9172         estimate D2E/DX2                !
 ! A78   A(7,22,50)            110.7942         estimate D2E/DX2                !
 ! A79   A(7,22,51)            111.9817         estimate D2E/DX2                !
 ! A80   A(7,22,52)            111.3208         estimate D2E/DX2                !
 ! A81   A(50,22,51)           107.5478         estimate D2E/DX2                !
 ! A82   A(50,22,52)           107.8764         estimate D2E/DX2                !
 ! A83   A(51,22,52)           107.115          estimate D2E/DX2                !
 ! A84   A(7,23,53)            111.9925         estimate D2E/DX2                !
 ! A85   A(7,23,54)            110.7942         estimate D2E/DX2                !
 ! A86   A(7,23,55)            111.3117         estimate D2E/DX2                !
 ! A87   A(53,23,54)           107.5538         estimate D2E/DX2                !
 ! A88   A(53,23,55)           107.1104         estimate D2E/DX2                !
 ! A89   A(54,23,55)           107.8732         estimate D2E/DX2                !
 ! A90   A(1,24,3)             118.5299         estimate D2E/DX2                !
 ! A91   A(1,24,25)            112.0416         estimate D2E/DX2                !
 ! A92   A(3,24,25)            129.4284         estimate D2E/DX2                !
 ! A93   A(24,25,27)           112.0498         estimate D2E/DX2                !
 ! A94   A(24,25,56)           123.8303         estimate D2E/DX2                !
 ! A95   A(27,25,56)           124.1188         estimate D2E/DX2                !
 ! A96   A(1,26,27)            112.0432         estimate D2E/DX2                !
 ! A97   A(1,26,28)            120.7382         estimate D2E/DX2                !
 ! A98   A(27,26,28)           127.2185         estimate D2E/DX2                !
 ! A99   A(25,27,26)           112.0647         estimate D2E/DX2                !
 ! A100  A(25,27,57)           123.2047         estimate D2E/DX2                !
 ! A101  A(26,27,57)           124.7281         estimate D2E/DX2                !
 ! A102  A(2,28,26)            120.7193         estimate D2E/DX2                !
 ! A103  A(2,28,29)            112.0376         estimate D2E/DX2                !
 ! A104  A(26,28,29)           127.2431         estimate D2E/DX2                !
 ! A105  A(28,29,30)           112.0482         estimate D2E/DX2                !
 ! A106  A(28,29,58)           124.7198         estimate D2E/DX2                !
 ! A107  A(30,29,58)           123.2297         estimate D2E/DX2                !
 ! A108  A(29,30,31)           112.0677         estimate D2E/DX2                !
 ! A109  A(29,30,59)           124.5805         estimate D2E/DX2                !
 ! A110  A(31,30,59)           123.3517         estimate D2E/DX2                !
 ! A111  A(2,31,30)            112.0364         estimate D2E/DX2                !
 ! A112  A(2,31,60)            120.3451         estimate D2E/DX2                !
 ! A113  A(30,31,60)           127.6185         estimate D2E/DX2                !
 ! D1    D(26,1,24,3)          179.9847         estimate D2E/DX2                !
 ! D2    D(26,1,24,25)          -0.0173         estimate D2E/DX2                !
 ! D3    D(24,1,26,27)           0.0091         estimate D2E/DX2                !
 ! D4    D(24,1,26,28)         179.9298         estimate D2E/DX2                !
 ! D5    D(31,2,28,26)        -179.9971         estimate D2E/DX2                !
 ! D6    D(31,2,28,29)          -0.0053         estimate D2E/DX2                !
 ! D7    D(28,2,31,30)           0.0051         estimate D2E/DX2                !
 ! D8    D(28,2,31,60)         179.9687         estimate D2E/DX2                !
 ! D9    D(9,3,8,4)              0.0            estimate D2E/DX2                !
 ! D10   D(9,3,8,14)          -179.9957         estimate D2E/DX2                !
 ! D11   D(24,3,8,4)           179.9782         estimate D2E/DX2                !
 ! D12   D(24,3,8,14)           -0.0175         estimate D2E/DX2                !
 ! D13   D(8,3,9,5)             -0.0011         estimate D2E/DX2                !
 ! D14   D(8,3,9,15)          -179.9938         estimate D2E/DX2                !
 ! D15   D(24,3,9,5)          -179.9793         estimate D2E/DX2                !
 ! D16   D(24,3,9,15)            0.0281         estimate D2E/DX2                !
 ! D17   D(8,3,24,1)           120.0271         estimate D2E/DX2                !
 ! D18   D(8,3,24,25)          -59.9705         estimate D2E/DX2                !
 ! D19   D(9,3,24,1)           -59.9977         estimate D2E/DX2                !
 ! D20   D(9,3,24,25)          120.0048         estimate D2E/DX2                !
 ! D21   D(8,4,5,9)             -0.0016         estimate D2E/DX2                !
 ! D22   D(8,4,5,13)           179.9925         estimate D2E/DX2                !
 ! D23   D(12,4,5,9)          -180.0            estimate D2E/DX2                !
 ! D24   D(12,4,5,13)           -0.0059         estimate D2E/DX2                !
 ! D25   D(5,4,8,3)              0.001          estimate D2E/DX2                !
 ! D26   D(5,4,8,14)           179.9971         estimate D2E/DX2                !
 ! D27   D(12,4,8,3)           179.9996         estimate D2E/DX2                !
 ! D28   D(12,4,8,14)           -0.0042         estimate D2E/DX2                !
 ! D29   D(5,4,12,10)          179.9961         estimate D2E/DX2                !
 ! D30   D(5,4,12,32)           -0.0011         estimate D2E/DX2                !
 ! D31   D(8,4,12,10)           -0.0021         estimate D2E/DX2                !
 ! D32   D(8,4,12,32)         -179.9993         estimate D2E/DX2                !
 ! D33   D(4,5,9,3)              0.0016         estimate D2E/DX2                !
 ! D34   D(4,5,9,15)           179.995          estimate D2E/DX2                !
 ! D35   D(13,5,9,3)          -179.9935         estimate D2E/DX2                !
 ! D36   D(13,5,9,15)           -0.0002         estimate D2E/DX2                !
 ! D37   D(4,5,13,11)          179.9954         estimate D2E/DX2                !
 ! D38   D(4,5,13,33)            0.0069         estimate D2E/DX2                !
 ! D39   D(9,5,13,11)           -0.011          estimate D2E/DX2                !
 ! D40   D(9,5,13,33)         -179.9995         estimate D2E/DX2                !
 ! D41   D(18,6,10,12)        -120.0046         estimate D2E/DX2                !
 ! D42   D(18,6,10,16)          59.9938         estimate D2E/DX2                !
 ! D43   D(19,6,10,12)         120.1074         estimate D2E/DX2                !
 ! D44   D(19,6,10,16)         -59.8942         estimate D2E/DX2                !
 ! D45   D(20,6,10,12)           0.0552         estimate D2E/DX2                !
 ! D46   D(20,6,10,16)        -179.9464         estimate D2E/DX2                !
 ! D47   D(10,6,18,38)          58.2457         estimate D2E/DX2                !
 ! D48   D(10,6,18,39)         -61.8374         estimate D2E/DX2                !
 ! D49   D(10,6,18,40)         178.2785         estimate D2E/DX2                !
 ! D50   D(19,6,18,38)        -179.7274         estimate D2E/DX2                !
 ! D51   D(19,6,18,39)          60.1895         estimate D2E/DX2                !
 ! D52   D(19,6,18,40)         -59.6946         estimate D2E/DX2                !
 ! D53   D(20,6,18,38)         -67.5183         estimate D2E/DX2                !
 ! D54   D(20,6,18,39)         172.3986         estimate D2E/DX2                !
 ! D55   D(20,6,18,40)          52.5145         estimate D2E/DX2                !
 ! D56   D(10,6,19,41)          61.8592         estimate D2E/DX2                !
 ! D57   D(10,6,19,42)         -58.2244         estimate D2E/DX2                !
 ! D58   D(10,6,19,43)        -178.2545         estimate D2E/DX2                !
 ! D59   D(18,6,19,41)         -60.1609         estimate D2E/DX2                !
 ! D60   D(18,6,19,42)         179.7555         estimate D2E/DX2                !
 ! D61   D(18,6,19,43)          59.7254         estimate D2E/DX2                !
 ! D62   D(20,6,19,41)        -172.3782         estimate D2E/DX2                !
 ! D63   D(20,6,19,42)          67.5382         estimate D2E/DX2                !
 ! D64   D(20,6,19,43)         -52.492          estimate D2E/DX2                !
 ! D65   D(10,6,20,44)          60.8237         estimate D2E/DX2                !
 ! D66   D(10,6,20,45)         -60.8609         estimate D2E/DX2                !
 ! D67   D(10,6,20,46)         179.9924         estimate D2E/DX2                !
 ! D68   D(18,6,20,44)        -176.0244         estimate D2E/DX2                !
 ! D69   D(18,6,20,45)          62.291          estimate D2E/DX2                !
 ! D70   D(18,6,20,46)         -56.8557         estimate D2E/DX2                !
 ! D71   D(19,6,20,44)         -62.3331         estimate D2E/DX2                !
 ! D72   D(19,6,20,45)         175.9823         estimate D2E/DX2                !
 ! D73   D(19,6,20,46)          56.8356         estimate D2E/DX2                !
 ! D74   D(21,7,11,13)           0.0742         estimate D2E/DX2                !
 ! D75   D(21,7,11,17)        -179.9464         estimate D2E/DX2                !
 ! D76   D(22,7,11,13)        -119.9752         estimate D2E/DX2                !
 ! D77   D(22,7,11,17)          60.0042         estimate D2E/DX2                !
 ! D78   D(23,7,11,13)         120.1213         estimate D2E/DX2                !
 ! D79   D(23,7,11,17)         -59.8993         estimate D2E/DX2                !
 ! D80   D(11,7,21,47)          60.8167         estimate D2E/DX2                !
 ! D81   D(11,7,21,48)         -60.8576         estimate D2E/DX2                !
 ! D82   D(11,7,21,49)         179.984          estimate D2E/DX2                !
 ! D83   D(22,7,21,47)        -176.0405         estimate D2E/DX2                !
 ! D84   D(22,7,21,48)          62.2852         estimate D2E/DX2                !
 ! D85   D(22,7,21,49)         -56.8732         estimate D2E/DX2                !
 ! D86   D(23,7,21,47)         -62.3355         estimate D2E/DX2                !
 ! D87   D(23,7,21,48)         175.9902         estimate D2E/DX2                !
 ! D88   D(23,7,21,49)          56.8318         estimate D2E/DX2                !
 ! D89   D(11,7,22,50)          58.2458         estimate D2E/DX2                !
 ! D90   D(11,7,22,51)         -61.8257         estimate D2E/DX2                !
 ! D91   D(11,7,22,52)         178.2917         estimate D2E/DX2                !
 ! D92   D(21,7,22,50)         -67.5049         estimate D2E/DX2                !
 ! D93   D(21,7,22,51)         172.4237         estimate D2E/DX2                !
 ! D94   D(21,7,22,52)          52.541          estimate D2E/DX2                !
 ! D95   D(23,7,22,50)        -179.7193         estimate D2E/DX2                !
 ! D96   D(23,7,22,51)          60.2093         estimate D2E/DX2                !
 ! D97   D(23,7,22,52)         -59.6734         estimate D2E/DX2                !
 ! D98   D(11,7,23,53)          61.8839         estimate D2E/DX2                !
 ! D99   D(11,7,23,54)         -58.2024         estimate D2E/DX2                !
 ! D100  D(11,7,23,55)        -178.2383         estimate D2E/DX2                !
 ! D101  D(21,7,23,53)        -172.3638         estimate D2E/DX2                !
 ! D102  D(21,7,23,54)          67.5499         estimate D2E/DX2                !
 ! D103  D(21,7,23,55)         -52.4859         estimate D2E/DX2                !
 ! D104  D(22,7,23,53)         -60.1432         estimate D2E/DX2                !
 ! D105  D(22,7,23,54)         179.7705         estimate D2E/DX2                !
 ! D106  D(22,7,23,55)          59.7347         estimate D2E/DX2                !
 ! D107  D(3,8,14,16)         -179.9959         estimate D2E/DX2                !
 ! D108  D(3,8,14,34)           -0.4178         estimate D2E/DX2                !
 ! D109  D(4,8,14,16)            0.0089         estimate D2E/DX2                !
 ! D110  D(4,8,14,34)          179.587          estimate D2E/DX2                !
 ! D111  D(3,9,15,17)         -179.9989         estimate D2E/DX2                !
 ! D112  D(3,9,15,35)           -1.6257         estimate D2E/DX2                !
 ! D113  D(5,9,15,17)            0.0094         estimate D2E/DX2                !
 ! D114  D(5,9,15,35)          178.3825         estimate D2E/DX2                !
 ! D115  D(6,10,12,4)         -179.9981         estimate D2E/DX2                !
 ! D116  D(6,10,12,32)          -0.001          estimate D2E/DX2                !
 ! D117  D(16,10,12,4)           0.0036         estimate D2E/DX2                !
 ! D118  D(16,10,12,32)       -179.9994         estimate D2E/DX2                !
 ! D119  D(6,10,16,14)        -179.9971         estimate D2E/DX2                !
 ! D120  D(6,10,16,36)           0.083          estimate D2E/DX2                !
 ! D121  D(12,10,16,14)          0.0013         estimate D2E/DX2                !
 ! D122  D(12,10,16,36)       -179.9186         estimate D2E/DX2                !
 ! D123  D(7,11,13,5)          179.9921         estimate D2E/DX2                !
 ! D124  D(7,11,13,33)          -0.02           estimate D2E/DX2                !
 ! D125  D(17,11,13,5)           0.013          estimate D2E/DX2                !
 ! D126  D(17,11,13,33)       -179.9992         estimate D2E/DX2                !
 ! D127  D(7,11,17,15)        -179.9827         estimate D2E/DX2                !
 ! D128  D(7,11,17,37)           0.3368         estimate D2E/DX2                !
 ! D129  D(13,11,17,15)         -0.0036         estimate D2E/DX2                !
 ! D130  D(13,11,17,37)       -179.6841         estimate D2E/DX2                !
 ! D131  D(8,14,16,10)          -0.0073         estimate D2E/DX2                !
 ! D132  D(8,14,16,36)         179.9153         estimate D2E/DX2                !
 ! D133  D(34,14,16,10)       -179.5947         estimate D2E/DX2                !
 ! D134  D(34,14,16,36)          0.3279         estimate D2E/DX2                !
 ! D135  D(9,15,17,11)          -0.0075         estimate D2E/DX2                !
 ! D136  D(9,15,17,37)         179.6836         estimate D2E/DX2                !
 ! D137  D(35,15,17,11)       -178.4355         estimate D2E/DX2                !
 ! D138  D(35,15,17,37)          1.2556         estimate D2E/DX2                !
 ! D139  D(1,24,25,27)           0.021          estimate D2E/DX2                !
 ! D140  D(1,24,25,56)         179.6639         estimate D2E/DX2                !
 ! D141  D(3,24,25,27)        -179.9813         estimate D2E/DX2                !
 ! D142  D(3,24,25,56)          -0.3385         estimate D2E/DX2                !
 ! D143  D(24,25,27,26)         -0.0143         estimate D2E/DX2                !
 ! D144  D(24,25,27,57)        179.4368         estimate D2E/DX2                !
 ! D145  D(56,25,27,26)       -179.6559         estimate D2E/DX2                !
 ! D146  D(56,25,27,57)         -0.2048         estimate D2E/DX2                !
 ! D147  D(1,26,27,25)           0.0012         estimate D2E/DX2                !
 ! D148  D(1,26,27,57)        -179.44           estimate D2E/DX2                !
 ! D149  D(28,26,27,25)       -179.9132         estimate D2E/DX2                !
 ! D150  D(28,26,27,57)          0.6455         estimate D2E/DX2                !
 ! D151  D(1,26,28,2)         -149.9205         estimate D2E/DX2                !
 ! D152  D(1,26,28,29)          30.089          estimate D2E/DX2                !
 ! D153  D(27,26,28,2)          29.9872         estimate D2E/DX2                !
 ! D154  D(27,26,28,29)       -150.0032         estimate D2E/DX2                !
 ! D155  D(2,28,29,30)           0.0042         estimate D2E/DX2                !
 ! D156  D(2,28,29,58)        -179.4571         estimate D2E/DX2                !
 ! D157  D(26,28,29,30)        179.9953         estimate D2E/DX2                !
 ! D158  D(26,28,29,58)          0.534          estimate D2E/DX2                !
 ! D159  D(28,29,30,31)         -0.0004         estimate D2E/DX2                !
 ! D160  D(28,29,30,59)       -179.8786         estimate D2E/DX2                !
 ! D161  D(58,29,30,31)        179.4703         estimate D2E/DX2                !
 ! D162  D(58,29,30,59)         -0.4079         estimate D2E/DX2                !
 ! D163  D(29,30,31,2)          -0.0036         estimate D2E/DX2                !
 ! D164  D(29,30,31,60)       -179.964          estimate D2E/DX2                !
 ! D165  D(59,30,31,2)         179.8763         estimate D2E/DX2                !
 ! D166  D(59,30,31,60)         -0.0841         estimate D2E/DX2                !
 --------------------------------------------------------------------------------
 Trust Radius=3.00D-01 FncErr=1.00D-07 GrdErr=1.00D-06 EigMax=2.50D+02 EigMin=1.00D-04
 Number of steps in this run=    353 maximum allowed number of steps=    360.
 GradGradGradGradGradGradGradGradGradGradGradGradGradGradGradGradGradGrad

 Leave Link  103 at Tue Dec  5 18:01:02 2023, MaxMem=  2147483648 cpu:               1.8 elap:               0.1
 (Enter /opt/gaussian/g16-c01/g16/l202.exe)
 Stoichiometry    C28H29NS2
 Framework group  C1[X(C28H29NS2)]
 Deg. of freedom   174
 Full point group                 C1      NOp   1
 Largest Abelian subgroup         C1      NOp   1
 Largest concise Abelian subgroup C1      NOp   1
                         Standard orientation:                         
 ---------------------------------------------------------------------
 Center     Atomic      Atomic             Coordinates (Angstroms)
 Number     Number       Type             X           Y           Z
 ---------------------------------------------------------------------
      1         16           0        2.558170    0.239237   -0.546544
      2         16           0        6.463147   -1.285117    0.196247
      3          7           0        0.099840   -0.208572    0.389834
      4          6           0       -2.066055   -0.618925    0.054097
      5          6           0       -1.868753    0.797798    0.100434
      6          6           0       -4.221702   -3.717997   -0.310940
      7          6           0       -3.093718    4.384418   -0.046128
      8          6           0       -0.820108   -1.218975    0.237669
      9          6           0       -0.508112    1.022128    0.310989
     10          6           0       -3.031915   -2.837429   -0.118964
     11          6           0       -2.191139    3.202015    0.078635
     12          6           0       -3.193516   -1.447360   -0.127711
     13          6           0       -2.725647    1.912240   -0.017936
     14          6           0       -0.642756   -2.607263    0.248977
     15          6           0        0.041144    2.305643    0.409502
     16          6           0       -1.774406   -3.406632    0.066758
     17          6           0       -0.827769    3.393424    0.289195
     18          6           0       -4.436733   -4.652278    0.919369
     19          6           0       -4.055351   -4.625745   -1.568528
     20          6           0       -5.582107   -2.972367   -0.511708
     21          6           0       -4.604512    4.052574   -0.279457
     22          6           0       -2.676156    5.288950   -1.246173
     23          6           0       -3.054949    5.262813    1.242218
     24          6           0        1.456451   -0.404673    0.595378
     25          6           0        2.099779   -1.065769    1.618552
     26          6           0        3.900894   -0.365617    0.327153
     27          6           0        3.515905   -1.042897    1.463114
     28          6           0        5.224472   -0.150708   -0.136820
     29          6           0        5.687319    0.919538   -0.870544
     30          6           0        7.077237    0.806417   -1.163073
     31          6           0        7.623685   -0.345647   -0.641947
     32          1           0       -4.152592   -0.964108   -0.268783
     33          1           0       -3.779009    1.719063   -0.181153
     34          1           0        0.330968   -3.065039    0.385877
     35          1           0        1.094046    2.480819    0.598473
     36          1           0       -1.639848   -4.485286    0.073611
     37          1           0       -0.405103    4.391665    0.370495
     38          1           0       -4.565100   -4.065094    1.836295
     39          1           0       -3.587947   -5.327119    1.075334
     40          1           0       -5.327729   -5.278405    0.793450
     41          1           0       -3.197041   -5.300252   -1.477089
     42          1           0       -3.904571   -4.019002   -2.469231
     43          1           0       -4.941363   -5.251090   -1.728659
     44          1           0       -5.563667   -2.334165   -1.402763
     45          1           0       -5.833972   -2.353435    0.357442
     46          1           0       -6.405775   -3.684319   -0.645841
     47          1           0       -5.022040    3.471993    0.551449
     48          1           0       -4.754339    3.491266   -1.209149
     49          1           0       -5.201543    4.969168   -0.360269
     50          1           0       -2.690496    4.721916   -2.184453
     51          1           0       -1.666589    5.695549   -1.121366
     52          1           0       -3.355844    6.141702   -1.357929
     53          1           0       -2.055632    5.669752    1.431355
     54          1           0       -3.345143    4.676442    2.121959
     55          1           0       -3.740614    6.114546    1.164477
     56          1           0        1.587134   -1.540715    2.445702
     57          1           0        4.197540   -1.500845    2.169222
     58          1           0        5.080629    1.759170   -1.186837
     59          1           0        7.647796    1.534068   -1.725507
     60          1           0        8.648998   -0.680237   -0.712861
 ---------------------------------------------------------------------
 Rotational constants (GHZ):           0.1458199           0.0732903           0.0512250
 Leave Link  202 at Tue Dec  5 18:01:03 2023, MaxMem=  2147483648 cpu:               3.5 elap:               0.2
 (Enter /opt/gaussian/g16-c01/g16/l301.exe)
 Standard basis: 6-311++G(d,p) (5D, 7F)
 Ernie: Thresh=  0.10000D-02 Tol=  0.10000D-05 Strict=F.
 There are   932 symmetry adapted cartesian basis functions of A   symmetry.
 There are   901 symmetry adapted basis functions of A   symmetry.
   901 basis functions,  1405 primitive gaussians,   932 cartesian basis functions
   118 alpha electrons      118 beta electrons
       nuclear repulsion energy      3188.0362992655 Hartrees.
 IExCor= 7252 DFT=T Ex+Corr=MN15 ExCW=0 ScaHFX=  0.440000
 ScaDFX=  1.000000  1.000000  1.000000  1.000000 ScalE2=  1.000000  1.000000
 IRadAn=      5 IRanWt=     -1 IRanGd=            0 ICorTp=0 IEmpDi=  4
 NAtoms=   60 NActive=   60 NUniq=   60 SFac= 1.00D+00 NAtFMM=   60 NAOKFM=T Big=T
 Integral buffers will be    131072 words long.
 Raffenetti 2 integral format.
 Two-electron integral symmetry is turned on.
 Leave Link  301 at Tue Dec  5 18:01:04 2023, MaxMem=  2147483648 cpu:              25.5 elap:               1.1
 (Enter /opt/gaussian/g16-c01/g16/l302.exe)
 NPDir=0 NMtPBC=     1 NCelOv=     1 NCel=       1 NClECP=     1 NCelD=      1
         NCelK=      1 NCelE2=     1 NClLst=     1 CellRange=     0.0.
 One-electron integrals computed using PRISM.
 One-electron integral symmetry used in STVInt
 NBasis=   901 RedAO= T EigKep=  1.11D-06  NBF=   901
 NBsUse=   889 1.00D-06 EigRej=  5.25D-07 NBFU=   889
 Precomputing XC quadrature grid using
 IXCGrd= 4 IRadAn=           5 IRanWt=          -1 IRanGd=           0 AccXCQ= 0.00D+00.
 Generated NRdTot=       0 NPtTot=           0 NUsed=           0 NTot=          32
 NSgBfM=   893   892   893   893   893 MxSgAt=    60 MxSgA2=    60.
 Leave Link  302 at Tue Dec  5 18:01:57 2023, MaxMem=  2147483648 cpu:            1327.5 elap:              53.2
 (Enter /opt/gaussian/g16-c01/g16/l303.exe)
 DipDrv:  MaxL=1.
 Leave Link  303 at Tue Dec  5 18:02:05 2023, MaxMem=  2147483648 cpu:             191.9 elap:               7.8
 (Enter /opt/gaussian/g16-c01/g16/l401.exe)
 ExpMin= 3.60D-02 ExpMax= 9.34D+04 ExpMxC= 3.17D+03 IAcc=3 IRadAn=         5 AccDes= 0.00D+00
 Harris functional with IExCor= 1009 and IRadAn=       5 diagonalized for initial guess.
 HarFok:  IExCor= 1009 AccDes= 0.00D+00 IRadAn=         5 IDoV= 1 UseB2=F ITyADJ=14
 ICtDFT=  3500011 ScaDFX=  1.000000  1.000000  1.000000  1.000000
 FoFCou: FMM=F IPFlag=           0 FMFlag=      100000 FMFlg1=        2001
         NFxFlg=           0 DoJE=T BraDBF=F KetDBF=T FulRan=T
         wScrn=  0.000000 ICntrl=       500 IOpCl=  0 I1Cent=   200000004 NGrid=           0
         NMat0=    1 NMatS0=      1 NMatT0=    0 NMatD0=    1 NMtDS0=    0 NMtDT0=    0
 Petite list used in FoFCou.
 Harris En= -1934.57799608375    
 JPrj=0 DoOrth=F DoCkMO=F.
 Leave Link  401 at Tue Dec  5 18:02:33 2023, MaxMem=  2147483648 cpu:             697.0 elap:              27.9
 (Enter /opt/gaussian/g16-c01/g16/l502.exe)
 Integral symmetry usage will be decided dynamically.
 Closed shell SCF:
 Using DIIS extrapolation, IDIIS=  1040.
 NGot=  2147483648 LenX=  2145711924 LenY=  2144842368
 Requested convergence on RMS density matrix=1.00D-08 within 128 cycles.
 Requested convergence on MAX density matrix=1.00D-06.
 Requested convergence on             energy=1.00D-06.
 No special actions if energy rises.
 Fock matrices will be formed incrementally for  20 cycles.

 Cycle   1  Pass 1  IDiag  1:
 FoFJK:  IHMeth= 1 ICntrl=       0 DoSepK=F KAlg= 0 I1Cent=           0 FoldK=F
 IRaf= 830000000 NMat=       1 IRICut=       1 DoRegI=T DoRafI=F ISym2E= 0 IDoP0=0 IntGTp=1.
 FoFCou: FMM=T IPFlag=           0 FMFlag=      100000 FMFlg1=        2001
         NFxFlg=           0 DoJE=F BraDBF=F KetDBF=F FulRan=T
         wScrn=  0.000000 ICntrl=         0 IOpCl=  0 I1Cent=           0 NGrid=           0
         NMat0=    1 NMatS0=      1 NMatT0=    0 NMatD0=    1 NMtDS0=    0 NMtDT0=    0
 Symmetry not used in FoFCou.
 FMM levels:  10  Number of levels for PrismC:   9
 E= -1933.22779697400    
 DIIS: error= 3.45D-02 at cycle   1 NSaved=   1.
 NSaved= 1 IEnMin= 1 EnMin= -1933.22779697400     IErMin= 1 ErrMin= 3.45D-02
 ErrMax= 3.45D-02  0.00D+00 EMaxC= 1.00D-01 BMatC= 1.67D+00 BMatP= 1.67D+00
 IDIUse=3 WtCom= 6.55D-01 WtEn= 3.45D-01
 Coeff-Com:  0.100D+01
 Coeff-En:   0.100D+01
 Coeff:      0.100D+01
 Gap=     0.259 Goal=   None    Shift=    0.000
 GapD=    0.259 DampG=1.000 DampE=0.500 DampFc=0.5000 IDamp=-1.
 Damping current iteration by 5.00D-01
 RMSDP=3.94D-02 MaxDP=3.43D+00              OVMax= 3.26D-01

 Cycle   2  Pass 1  IDiag  1:
 RMSU=  1.81D-02    CP:  8.69D-01
 E= -1933.68085263076     Delta-E=       -0.453055656752 Rises=F Damp=T
 DIIS: error= 1.42D-02 at cycle   2 NSaved=   2.
 NSaved= 2 IEnMin= 2 EnMin= -1933.68085263076     IErMin= 2 ErrMin= 1.42D-02
 ErrMax= 1.42D-02  0.00D+00 EMaxC= 1.00D-01 BMatC= 2.03D-01 BMatP= 1.67D+00
 IDIUse=3 WtCom= 8.58D-01 WtEn= 1.42D-01
 Coeff-Com: -0.772D-01 0.108D+01
 Coeff-En:   0.107D+00 0.893D+00
 Coeff:     -0.512D-01 0.105D+01
 Gap=     0.301 Goal=   None    Shift=    0.000
 RMSDP=2.32D-02 MaxDP=3.21D+00 DE=-4.53D-01 OVMax= 2.73D-01

 Cycle   3  Pass 1  IDiag  1:
 RMSU=  1.10D-02    CP:  5.89D-01  3.30D-01
 E= -1934.11977542308     Delta-E=       -0.438922792326 Rises=F Damp=F
 DIIS: error= 1.41D-02 at cycle   3 NSaved=   3.
 NSaved= 3 IEnMin= 3 EnMin= -1934.11977542308     IErMin= 3 ErrMin= 1.41D-02
 ErrMax= 1.41D-02  0.00D+00 EMaxC= 1.00D-01 BMatC= 1.32D-01 BMatP= 2.03D-01
 IDIUse=3 WtCom= 8.59D-01 WtEn= 1.41D-01
 Coeff-Com: -0.143D+00 0.524D+00 0.620D+00
 Coeff-En:   0.000D+00 0.000D+00 0.100D+01
 Coeff:     -0.123D+00 0.450D+00 0.673D+00
 Gap=     0.232 Goal=   None    Shift=    0.000
 RMSDP=8.42D-03 MaxDP=1.08D+00 DE=-4.39D-01 OVMax= 1.49D-01

 Cycle   4  Pass 1  IDiag  1:
 RMSU=  6.19D-03    CP:  5.54D-01  5.49D-01  6.78D-01
 E= -1934.19020468868     Delta-E=       -0.070429265600 Rises=F Damp=F
 DIIS: error= 1.06D-02 at cycle   4 NSaved=   4.
 NSaved= 4 IEnMin= 4 EnMin= -1934.19020468868     IErMin= 4 ErrMin= 1.06D-02
 ErrMax= 1.06D-02  0.00D+00 EMaxC= 1.00D-01 BMatC= 6.80D-02 BMatP= 1.32D-01
 IDIUse=3 WtCom= 8.94D-01 WtEn= 1.06D-01
 Coeff-Com: -0.698D-01 0.173D+00 0.455D+00 0.442D+00
 Coeff-En:   0.000D+00 0.000D+00 0.360D+00 0.640D+00
 Coeff:     -0.624D-01 0.155D+00 0.445D+00 0.463D+00
 Gap=     0.198 Goal=   None    Shift=    0.000
 RMSDP=3.95D-03 MaxDP=4.83D-01 DE=-7.04D-02 OVMax= 8.16D-02

 Cycle   5  Pass 1  IDiag  1:
 RMSU=  1.83D-03    CP:  5.39D-01  4.91D-01  7.77D-01  5.11D-01
 E= -1934.25841616175     Delta-E=       -0.068211473073 Rises=F Damp=F
 DIIS: error= 1.28D-03 at cycle   5 NSaved=   5.
 NSaved= 5 IEnMin= 5 EnMin= -1934.25841616175     IErMin= 5 ErrMin= 1.28D-03
 ErrMax= 1.28D-03  0.00D+00 EMaxC= 1.00D-01 BMatC= 2.22D-03 BMatP= 6.80D-02
 IDIUse=3 WtCom= 9.87D-01 WtEn= 1.28D-02
 Coeff-Com: -0.242D-01 0.553D-01 0.206D+00 0.252D+00 0.511D+00
 Coeff-En:   0.000D+00 0.000D+00 0.000D+00 0.000D+00 0.100D+01
 Coeff:     -0.239D-01 0.546D-01 0.204D+00 0.249D+00 0.517D+00
 Gap=     0.190 Goal=   None    Shift=    0.000
 RMSDP=9.81D-04 MaxDP=9.71D-02 DE=-6.82D-02 OVMax= 1.24D-02

 Cycle   6  Pass 1  IDiag  1:
 RMSU=  5.08D-04    CP:  5.43D-01  4.71D-01  7.86D-01  5.83D-01  6.92D-01
 E= -1934.26056035581     Delta-E=       -0.002144194055 Rises=F Damp=F
 DIIS: error= 4.27D-04 at cycle   6 NSaved=   6.
 NSaved= 6 IEnMin= 6 EnMin= -1934.26056035581     IErMin= 6 ErrMin= 4.27D-04
 ErrMax= 4.27D-04  0.00D+00 EMaxC= 1.00D-01 BMatC= 1.74D-04 BMatP= 2.22D-03
 IDIUse=3 WtCom= 9.96D-01 WtEn= 4.27D-03
 Coeff-Com:  0.927D-03-0.395D-02 0.217D-01 0.396D-01 0.243D+00 0.699D+00
 Coeff-En:   0.000D+00 0.000D+00 0.000D+00 0.000D+00 0.429D-03 0.100D+01
 Coeff:      0.923D-03-0.394D-02 0.216D-01 0.395D-01 0.242D+00 0.700D+00
 Gap=     0.191 Goal=   None    Shift=    0.000
 RMSDP=3.02D-04 MaxDP=3.95D-02 DE=-2.14D-03 OVMax= 4.81D-03

 Cycle   7  Pass 1  IDiag  1:
 RMSU=  1.81D-04    CP:  5.45D-01  4.67D-01  7.92D-01  5.68D-01  7.55D-01
                    CP:  8.43D-01
 E= -1934.26072586345     Delta-E=       -0.000165507639 Rises=F Damp=F
 DIIS: error= 1.89D-04 at cycle   7 NSaved=   7.
 NSaved= 7 IEnMin= 7 EnMin= -1934.26072586345     IErMin= 7 ErrMin= 1.89D-04
 ErrMax= 1.89D-04  0.00D+00 EMaxC= 1.00D-01 BMatC= 2.89D-05 BMatP= 1.74D-04
 IDIUse=3 WtCom= 9.98D-01 WtEn= 1.89D-03
 Coeff-Com:  0.232D-02-0.628D-02-0.402D-02 0.881D-03 0.844D-01 0.379D+00
 Coeff-Com:  0.543D+00
 Coeff-En:   0.000D+00 0.000D+00 0.000D+00 0.000D+00 0.000D+00 0.175D-01
 Coeff-En:   0.982D+00
 Coeff:      0.231D-02-0.627D-02-0.401D-02 0.879D-03 0.843D-01 0.379D+00
 Coeff:      0.544D+00
 Gap=     0.192 Goal=   None    Shift=    0.000
 RMSDP=1.03D-04 MaxDP=1.48D-02 DE=-1.66D-04 OVMax= 1.51D-03

 Cycle   8  Pass 1  IDiag  1:
 RMSU=  7.69D-05    CP:  5.45D-01  4.68D-01  7.90D-01  5.75D-01  7.52D-01
                    CP:  9.15D-01  8.92D-01
 E= -1934.26075444892     Delta-E=       -0.000028585466 Rises=F Damp=F
 DIIS: error= 5.29D-05 at cycle   8 NSaved=   8.
 NSaved= 8 IEnMin= 8 EnMin= -1934.26075444892     IErMin= 8 ErrMin= 5.29D-05
 ErrMax= 5.29D-05  0.00D+00 EMaxC= 1.00D-01 BMatC= 2.35D-06 BMatP= 2.89D-05
 IDIUse=1 WtCom= 1.00D+00 WtEn= 0.00D+00
 Coeff-Com:  0.974D-03-0.231D-02-0.496D-02-0.565D-02 0.235D-02 0.752D-01
 Coeff-Com:  0.245D+00 0.689D+00
 Coeff:      0.974D-03-0.231D-02-0.496D-02-0.565D-02 0.235D-02 0.752D-01
 Coeff:      0.245D+00 0.689D+00
 Gap=     0.192 Goal=   None    Shift=    0.000
 RMSDP=3.34D-05 MaxDP=6.02D-03 DE=-2.86D-05 OVMax= 7.32D-04

 Cycle   9  Pass 1  IDiag  1:
 RMSU=  1.95D-05    CP:  5.45D-01  4.67D-01  7.90D-01  5.74D-01  7.57D-01
                    CP:  9.25D-01  9.95D-01  8.85D-01
 E= -1934.26075717902     Delta-E=       -0.000002730107 Rises=F Damp=F
 DIIS: error= 1.88D-05 at cycle   9 NSaved=   9.
 NSaved= 9 IEnMin= 9 EnMin= -1934.26075717902     IErMin= 9 ErrMin= 1.88D-05
 ErrMax= 1.88D-05  0.00D+00 EMaxC= 1.00D-01 BMatC= 5.16D-07 BMatP= 2.35D-06
 IDIUse=1 WtCom= 1.00D+00 WtEn= 0.00D+00
 Coeff-Com:  0.265D-03-0.508D-03-0.228D-02-0.343D-02-0.110D-01-0.836D-02
 Coeff-Com:  0.601D-01 0.374D+00 0.591D+00
 Coeff:      0.265D-03-0.508D-03-0.228D-02-0.343D-02-0.110D-01-0.836D-02
 Coeff:      0.601D-01 0.374D+00 0.591D+00
 Gap=     0.192 Goal=   None    Shift=    0.000
 RMSDP=1.58D-05 MaxDP=1.37D-03 DE=-2.73D-06 OVMax= 3.36D-04

 Cycle  10  Pass 1  IDiag  1:
 RMSU=  9.70D-06    CP:  5.45D-01  4.67D-01  7.90D-01  5.75D-01  7.56D-01
                    CP:  9.37D-01  1.02D+00  9.60D-01  9.81D-01
 E= -1934.26075781372     Delta-E=       -0.000000634694 Rises=F Damp=F
 DIIS: error= 6.62D-06 at cycle  10 NSaved=  10.
 NSaved=10 IEnMin=10 EnMin= -1934.26075781372     IErMin=10 ErrMin= 6.62D-06
 ErrMax= 6.62D-06  0.00D+00 EMaxC= 1.00D-01 BMatC= 5.03D-08 BMatP= 5.16D-07
 IDIUse=1 WtCom= 1.00D+00 WtEn= 0.00D+00
 Coeff-Com: -0.844D-04 0.245D-03 0.160D-03-0.219D-03-0.598D-02-0.191D-01
 Coeff-Com: -0.240D-01 0.200D-01 0.242D+00 0.787D+00
 Coeff:     -0.844D-04 0.245D-03 0.160D-03-0.219D-03-0.598D-02-0.191D-01
 Coeff:     -0.240D-01 0.200D-01 0.242D+00 0.787D+00
 Gap=     0.192 Goal=   None    Shift=    0.000
 RMSDP=6.80D-06 MaxDP=1.50D-03 DE=-6.35D-07 OVMax= 1.31D-04

 Cycle  11  Pass 1  IDiag  1:
 RMSU=  3.23D-06    CP:  5.45D-01  4.67D-01  7.90D-01  5.75D-01  7.56D-01
                    CP:  9.40D-01  1.03D+00  9.96D-01  1.17D+00  1.11D+00
 E= -1934.26075789918     Delta-E=       -0.000000085466 Rises=F Damp=F
 DIIS: error= 1.69D-06 at cycle  11 NSaved=  11.
 NSaved=11 IEnMin=11 EnMin= -1934.26075789918     IErMin=11 ErrMin= 1.69D-06
 ErrMax= 1.69D-06  0.00D+00 EMaxC= 1.00D-01 BMatC= 6.29D-09 BMatP= 5.03D-08
 IDIUse=1 WtCom= 1.00D+00 WtEn= 0.00D+00
 Coeff-Com: -0.652D-04 0.156D-03 0.336D-03 0.301D-03-0.168D-02-0.754D-02
 Coeff-Com: -0.156D-01-0.289D-01 0.420D-01 0.339D+00 0.672D+00
 Coeff:     -0.652D-04 0.156D-03 0.336D-03 0.301D-03-0.168D-02-0.754D-02
 Coeff:     -0.156D-01-0.289D-01 0.420D-01 0.339D+00 0.672D+00
 Gap=     0.192 Goal=   None    Shift=    0.000
 RMSDP=2.46D-06 MaxDP=2.83D-04 DE=-8.55D-08 OVMax= 4.03D-05

 Cycle  12  Pass 1  IDiag  1:
 RMSU=  1.06D-06    CP:  5.45D-01  4.67D-01  7.90D-01  5.75D-01  7.56D-01
                    CP:  9.41D-01  1.03D+00  1.00D+00  1.21D+00  1.17D+00
                    CP:  9.73D-01
 E= -1934.26075790779     Delta-E=       -0.000000008613 Rises=F Damp=F
 DIIS: error= 6.95D-07 at cycle  12 NSaved=  12.
 NSaved=12 IEnMin=12 EnMin= -1934.26075790779     IErMin=12 ErrMin= 6.95D-07
 ErrMax= 6.95D-07  0.00D+00 EMaxC= 1.00D-01 BMatC= 8.29D-10 BMatP= 6.29D-09
 IDIUse=1 WtCom= 1.00D+00 WtEn= 0.00D+00
 Coeff-Com: -0.204D-04 0.426D-04 0.134D-03 0.171D-03-0.112D-03-0.129D-02
 Coeff-Com: -0.430D-02-0.161D-01-0.115D-01 0.605D-01 0.308D+00 0.664D+00
 Coeff:     -0.204D-04 0.426D-04 0.134D-03 0.171D-03-0.112D-03-0.129D-02
 Coeff:     -0.430D-02-0.161D-01-0.115D-01 0.605D-01 0.308D+00 0.664D+00
 Gap=     0.192 Goal=   None    Shift=    0.000
 RMSDP=7.67D-07 MaxDP=5.28D-05 DE=-8.61D-09 OVMax= 1.52D-05

 Cycle  13  Pass 1  IDiag  1:
 RMSU=  4.52D-07    CP:  5.45D-01  4.67D-01  7.90D-01  5.75D-01  7.56D-01
                    CP:  9.41D-01  1.03D+00  1.00D+00  1.23D+00  1.20D+00
                    CP:  1.08D+00  9.16D-01
 E= -1934.26075790817     Delta-E=       -0.000000000373 Rises=F Damp=F
 DIIS: error= 4.54D-07 at cycle  13 NSaved=  13.
 NSaved=13 IEnMin=13 EnMin= -1934.26075790817     IErMin=13 ErrMin= 4.54D-07
 ErrMax= 4.54D-07  0.00D+00 EMaxC= 1.00D-01 BMatC= 1.38D-10 BMatP= 8.29D-10
 IDIUse=1 WtCom= 1.00D+00 WtEn= 0.00D+00
 Coeff-Com: -0.146D-05 0.835D-06 0.211D-04 0.496D-04 0.195D-03 0.440D-03
 Coeff-Com:  0.373D-04-0.415D-02-0.123D-01-0.169D-01 0.635D-01 0.336D+00
 Coeff-Com:  0.633D+00
 Coeff:     -0.146D-05 0.835D-06 0.211D-04 0.496D-04 0.195D-03 0.440D-03
 Coeff:      0.373D-04-0.415D-02-0.123D-01-0.169D-01 0.635D-01 0.336D+00
 Coeff:      0.633D+00
 Gap=     0.192 Goal=   None    Shift=    0.000
 RMSDP=2.81D-07 MaxDP=2.05D-05 DE=-3.73D-10 OVMax= 5.92D-06

 Cycle  14  Pass 1  IDiag  1:
 RMSU=  1.67D-07    CP:  5.45D-01  4.67D-01  7.90D-01  5.75D-01  7.56D-01
                    CP:  9.41D-01  1.03D+00  1.00D+00  1.23D+00  1.21D+00
                    CP:  1.09D+00  9.75D-01  7.82D-01
 E= -1934.26075790844     Delta-E=       -0.000000000269 Rises=F Damp=F
 DIIS: error= 1.56D-07 at cycle  14 NSaved=  14.
 NSaved=14 IEnMin=14 EnMin= -1934.26075790844     IErMin=14 ErrMin= 1.56D-07
 ErrMax= 1.56D-07  0.00D+00 EMaxC= 1.00D-01 BMatC= 1.92D-11 BMatP= 1.38D-10
 IDIUse=1 WtCom= 1.00D+00 WtEn= 0.00D+00
 Coeff-Com:  0.185D-05-0.463D-05-0.746D-05 0.365D-05 0.114D-03 0.399D-03
 Coeff-Com:  0.606D-03 0.158D-03-0.455D-02-0.159D-01-0.924D-02 0.770D-01
 Coeff-Com:  0.321D+00 0.631D+00
 Coeff:      0.185D-05-0.463D-05-0.746D-05 0.365D-05 0.114D-03 0.399D-03
 Coeff:      0.606D-03 0.158D-03-0.455D-02-0.159D-01-0.924D-02 0.770D-01
 Coeff:      0.321D+00 0.631D+00
 Gap=     0.192 Goal=   None    Shift=    0.000
 RMSDP=8.67D-08 MaxDP=6.07D-06 DE=-2.69D-10 OVMax= 1.51D-06

 Cycle  15  Pass 1  IDiag  1:
 RMSU=  3.99D-08    CP:  5.45D-01  4.67D-01  7.90D-01  5.75D-01  7.56D-01
                    CP:  9.41D-01  1.03D+00  1.00D+00  1.23D+00  1.21D+00
                    CP:  1.10D+00  9.85D-01  8.69D-01  9.53D-01
 E= -1934.26075790881     Delta-E=       -0.000000000377 Rises=F Damp=F
 DIIS: error= 4.79D-08 at cycle  15 NSaved=  15.
 NSaved=15 IEnMin=15 EnMin= -1934.26075790881     IErMin=15 ErrMin= 4.79D-08
 ErrMax= 4.79D-08  0.00D+00 EMaxC= 1.00D-01 BMatC= 1.76D-12 BMatP= 1.92D-11
 IDIUse=1 WtCom= 1.00D+00 WtEn= 0.00D+00
 Coeff-Com:  0.853D-06-0.186D-05-0.547D-05-0.309D-05 0.231D-04 0.110D-03
 Coeff-Com:  0.253D-03 0.519D-03-0.564D-03-0.477D-02-0.116D-01-0.550D-02
 Coeff-Com:  0.663D-01 0.267D+00 0.688D+00
 Coeff:      0.853D-06-0.186D-05-0.547D-05-0.309D-05 0.231D-04 0.110D-03
 Coeff:      0.253D-03 0.519D-03-0.564D-03-0.477D-02-0.116D-01-0.550D-02
 Coeff:      0.663D-01 0.267D+00 0.688D+00
 Gap=     0.192 Goal=   None    Shift=    0.000
 RMSDP=3.86D-08 MaxDP=5.58D-06 DE=-3.77D-10 OVMax= 7.29D-07

 Cycle  16  Pass 1  IDiag  1:
 RMSU=  1.81D-08    CP:  5.45D-01  4.67D-01  7.90D-01  5.75D-01  7.56D-01
                    CP:  9.41D-01  1.03D+00  1.00D+00  1.23D+00  1.21D+00
                    CP:  1.10D+00  9.96D-01  8.83D-01  9.62D-01  1.01D+00
 E= -1934.26075790853     Delta-E=        0.000000000286 Rises=F Damp=F
 DIIS: error= 2.09D-08 at cycle  16 NSaved=  16.
 NSaved=16 IEnMin=15 EnMin= -1934.26075790881     IErMin=16 ErrMin= 2.09D-08
 ErrMax= 2.09D-08  0.00D+00 EMaxC= 1.00D-01 BMatC= 3.52D-13 BMatP= 1.76D-12
 IDIUse=1 WtCom= 1.00D+00 WtEn= 0.00D+00
 Coeff-Com:  0.143D-06-0.235D-06-0.162D-05-0.192D-05-0.783D-05-0.919D-05
 Coeff-Com:  0.340D-04 0.229D-03 0.458D-03 0.320D-03-0.425D-02-0.155D-01
 Coeff-Com: -0.199D-01 0.287D-01 0.352D+00 0.658D+00
 Coeff:      0.143D-06-0.235D-06-0.162D-05-0.192D-05-0.783D-05-0.919D-05
 Coeff:      0.340D-04 0.229D-03 0.458D-03 0.320D-03-0.425D-02-0.155D-01
 Coeff:     -0.199D-01 0.287D-01 0.352D+00 0.658D+00
 Gap=     0.192 Goal=   None    Shift=    0.000
 RMSDP=1.27D-08 MaxDP=2.17D-06 DE= 2.86D-10 OVMax= 2.45D-07

 Cycle  17  Pass 1  IDiag  1:
 RMSU=  6.87D-09    CP:  5.45D-01  4.67D-01  7.90D-01  5.75D-01  7.56D-01
                    CP:  9.41D-01  1.03D+00  1.00D+00  1.23D+00  1.21D+00
                    CP:  1.10D+00  9.95D-01  8.82D-01  1.00D+00  1.08D+00
                    CP:  9.28D-01
 E= -1934.26075790881     Delta-E=       -0.000000000280 Rises=F Damp=F
 DIIS: error= 7.91D-09 at cycle  17 NSaved=  17.
 NSaved=17 IEnMin=15 EnMin= -1934.26075790881     IErMin=17 ErrMin= 7.91D-09
 ErrMax= 7.91D-09  0.00D+00 EMaxC= 1.00D-01 BMatC= 3.83D-14 BMatP= 3.52D-13
 IDIUse=1 WtCom= 1.00D+00 WtEn= 0.00D+00
 Coeff-Com: -0.155D-07 0.608D-07-0.251D-06-0.530D-06-0.613D-05-0.151D-04
 Coeff-Com: -0.850D-05 0.440D-04 0.254D-03 0.654D-03-0.608D-03-0.653D-02
 Coeff-Com: -0.163D-01-0.159D-01 0.927D-01 0.312D+00 0.634D+00
 Coeff:     -0.155D-07 0.608D-07-0.251D-06-0.530D-06-0.613D-05-0.151D-04
 Coeff:     -0.850D-05 0.440D-04 0.254D-03 0.654D-03-0.608D-03-0.653D-02
 Coeff:     -0.163D-01-0.159D-01 0.927D-01 0.312D+00 0.634D+00
 Gap=     0.192 Goal=   None    Shift=    0.000
 RMSDP=3.47D-09 MaxDP=3.49D-07 DE=-2.80D-10 OVMax= 1.28D-07

 SCF Done:  E(RMN15) =  -1934.26075791     A.U. after   17 cycles
            NFock= 17  Conv=0.35D-08     -V/T= 2.0026
 KE= 1.929299075972D+03 PE=-1.091095202065D+04 EE= 3.859355887503D+03
 Leave Link  502 at Tue Dec  5 18:13:22 2023, MaxMem=  2147483648 cpu:           16602.8 elap:             649.4
 (Enter /opt/gaussian/g16-c01/g16/l601.exe)
 Copying SCF densities to generalized density rwf, IOpCl= 0 IROHF=0.

 **********************************************************************

            Population analysis using the SCF Density.

 **********************************************************************

 Orbital symmetries:
       Occupied  (A) (A) (A) (A) (A) (A) (A) (A) (A) (A) (A) (A)
                 (A) (A) (A) (A) (A) (A) (A) (A) (A) (A) (A) (A)
                 (A) (A) (A) (A) (A) (A) (A) (A) (A) (A) (A) (A)
                 (A) (A) (A) (A) (A) (A) (A) (A) (A) (A) (A) (A)
                 (A) (A) (A) (A) (A) (A) (A) (A) (A) (A) (A) (A)
                 (A) (A) (A) (A) (A) (A) (A) (A) (A) (A) (A) (A)
                 (A) (A) (A) (A) (A) (A) (A) (A) (A) (A) (A) (A)
                 (A) (A) (A) (A) (A) (A) (A) (A) (A) (A) (A) (A)
                 (A) (A) (A) (A) (A) (A) (A) (A) (A) (A) (A) (A)
                 (A) (A) (A) (A) (A) (A) (A) (A) (A) (A)
       Virtual   (A) (A) (A) (A) (A) (A) (A) (A) (A) (A) (A) (A)
                 (A) (A) (A) (A) (A) (A) (A) (A) (A) (A) (A) (A)
                 (A) (A) (A) (A) (A) (A) (A) (A) (A) (A) (A) (A)
                 (A) (A) (A) (A) (A) (A) (A) (A) (A) (A) (A) (A)
                 (A) (A) (A) (A) (A) (A) (A) (A) (A) (A) (A) (A)
                 (A) (A) (A) (A) (A) (A) (A) (A) (A) (A) (A) (A)
                 (A) (A) (A) (A) (A) (A) (A) (A) (A) (A) (A) (A)
                 (A) (A) (A) (A) (A) (A) (A) (A) (A) (A) (A) (A)
                 (A) (A) (A) (A) (A) (A) (A) (A) (A) (A) (A) (A)
                 (A) (A) (A) (A) (A) (A) (A) (A) (A) (A) (A) (A)
                 (A) (A) (A) (A) (A) (A) (A) (A) (A) (A) (A) (A)
                 (A) (A) (A) (A) (A) (A) (A) (A) (A) (A) (A) (A)
                 (A) (A) (A) (A) (A) (A) (A) (A) (A) (A) (A) (A)
                 (A) (A) (A) (A) (A) (A) (A) (A) (A) (A) (A) (A)
                 (A) (A) (A) (A) (A) (A) (A) (A) (A) (A) (A) (A)
                 (A) (A) (A) (A) (A) (A) (A) (A) (A) (A) (A) (A)
                 (A) (A) (A) (A) (A) (A) (A) (A) (A) (A) (A) (A)
                 (A) (A) (A) (A) (A) (A) (A) (A) (A) (A) (A) (A)
                 (A) (A) (A) (A) (A) (A) (A) (A) (A) (A) (A) (A)
                 (A) (A) (A) (A) (A) (A) (A) (A) (A) (A) (A) (A)
                 (A) (A) (A) (A) (A) (A) (A) (A) (A) (A) (A) (A)
                 (A) (A) (A) (A) (A) (A) (A) (A) (A) (A) (A) (A)
                 (A) (A) (A) (A) (A) (A) (A) (A) (A) (A) (A) (A)
                 (A) (A) (A) (A) (A) (A) (A) (A) (A) (A) (A) (A)
                 (A) (A) (A) (A) (A) (A) (A) (A) (A) (A) (A) (A)
                 (A) (A) (A) (A) (A) (A) (A) (A) (A) (A) (A) (A)
                 (A) (A) (A) (A) (A) (A) (A) (A) (A) (A) (A) (A)
                 (A) (A) (A) (A) (A) (A) (A) (A) (A) (A) (A) (A)
                 (A) (A) (A) (A) (A) (A) (A) (A) (A) (A) (A) (A)
                 (A) (A) (A) (A) (A) (A) (A) (A) (A) (A) (A) (A)
                 (A) (A) (A) (A) (A) (A) (A) (A) (A) (A) (A) (A)
                 (A) (A) (A) (A) (A) (A) (A) (A) (A) (A) (A) (A)
                 (A) (A) (A) (A) (A) (A) (A) (A) (A) (A) (A) (A)
                 (A) (A) (A) (A) (A) (A) (A) (A) (A) (A) (A) (A)
                 (A) (A) (A) (A) (A) (A) (A) (A) (A) (A) (A) (A)
                 (A) (A) (A) (A) (A) (A) (A) (A) (A) (A) (A) (A)
                 (A) (A) (A) (A) (A) (A) (A) (A) (A) (A) (A) (A)
                 (A) (A) (A) (A) (A) (A) (A) (A) (A) (A) (A) (A)
                 (A) (A) (A) (A) (A) (A) (A) (A) (A) (A) (A) (A)
                 (A) (A) (A) (A) (A) (A) (A) (A) (A) (A) (A) (A)
                 (A) (A) (A) (A) (A) (A) (A) (A) (A) (A) (A) (A)
                 (A) (A) (A) (A) (A) (A) (A) (A) (A) (A) (A) (A)
                 (A) (A) (A) (A) (A) (A) (A) (A) (A) (A) (A) (A)
                 (A) (A) (A) (A) (A) (A) (A) (A) (A) (A) (A) (A)
                 (A) (A) (A) (A) (A) (A) (A) (A) (A) (A) (A) (A)
                 (A) (A) (A) (A) (A) (A) (A) (A) (A) (A) (A) (A)
                 (A) (A) (A) (A) (A) (A) (A) (A) (A) (A) (A) (A)
                 (A) (A) (A) (A) (A) (A) (A) (A) (A) (A) (A) (A)
                 (A) (A) (A) (A) (A) (A) (A) (A) (A) (A) (A) (A)
                 (A) (A) (A) (A) (A) (A) (A) (A) (A) (A) (A) (A)
                 (A) (A) (A) (A) (A) (A) (A) (A) (A) (A) (A) (A)
                 (A) (A) (A) (A) (A) (A) (A) (A) (A) (A) (A) (A)
                 (A) (A) (A) (A) (A) (A) (A) (A) (A) (A) (A) (A)
                 (A) (A) (A) (A) (A) (A) (A) (A) (A) (A) (A) (A)
                 (A) (A) (A) (A) (A) (A) (A) (A) (A) (A) (A) (A)
                 (A) (A) (A) (A) (A) (A) (A) (A) (A) (A) (A) (A)
                 (A) (A) (A) (A) (A) (A) (A) (A) (A) (A) (A) (A)
                 (A) (A) (A) (A) (A) (A) (A) (A) (A) (A) (A) (A)
                 (A) (A) (A) (A) (A) (A) (A) (A) (A) (A) (A) (A)
                 (A) (A) (A) (A) (A) (A) (A) (A) (A) (A) (A) (A)
                 (A) (A) (A) (A) (A) (A) (A) (A) (A) (A) (A) (A)
                 (A) (A) (A) (A) (A) (A) (A) (A) (A) (A) (A) (A)
                 (A) (A) (A) (A) (A) (A) (A) (A) (A) (A) (A) (A)
                 (A) (A) (A) (A) (A) (A) (A) (A) (A) (A) (A) (A)
                 (A) (A) (A)
 The electronic state is 1-A.
 Alpha  occ. eigenvalues --  -87.77464 -87.77305 -14.14238 -10.11425 -10.08724
 Alpha  occ. eigenvalues --  -10.08452 -10.07990 -10.07969 -10.07447 -10.05757
 Alpha  occ. eigenvalues --  -10.05693 -10.05680 -10.05561 -10.05336 -10.05191
 Alpha  occ. eigenvalues --  -10.04699 -10.04670 -10.04354 -10.04335 -10.04305
 Alpha  occ. eigenvalues --  -10.04293 -10.04263 -10.04233 -10.04217 -10.04198
 Alpha  occ. eigenvalues --  -10.02699 -10.02690 -10.02485 -10.02484 -10.02482
 Alpha  occ. eigenvalues --  -10.02458  -7.75034  -7.74827  -5.93546  -5.93344
 Alpha  occ. eigenvalues --   -5.92917  -5.92701  -5.92479  -5.92295  -1.06081
 Alpha  occ. eigenvalues --   -0.95846  -0.93447  -0.90895  -0.90708  -0.86748
 Alpha  occ. eigenvalues --   -0.85882  -0.83115  -0.81508  -0.79894  -0.78777
 Alpha  occ. eigenvalues --   -0.78289  -0.77267  -0.76865  -0.73830  -0.72909
 Alpha  occ. eigenvalues --   -0.72465  -0.72451  -0.72331  -0.69458  -0.67075
 Alpha  occ. eigenvalues --   -0.65951  -0.64350  -0.62479  -0.61813  -0.60436
 Alpha  occ. eigenvalues --   -0.59884  -0.58684  -0.58051  -0.57639  -0.56313
 Alpha  occ. eigenvalues --   -0.54763  -0.52414  -0.51858  -0.50946  -0.50289
 Alpha  occ. eigenvalues --   -0.49110  -0.48977  -0.48392  -0.48064  -0.48028
 Alpha  occ. eigenvalues --   -0.47907  -0.46866  -0.46335  -0.46116  -0.45872
 Alpha  occ. eigenvalues --   -0.45671  -0.44737  -0.44456  -0.44194  -0.43651
 Alpha  occ. eigenvalues --   -0.43493  -0.43036  -0.42403  -0.42255  -0.41320
 Alpha  occ. eigenvalues --   -0.41267  -0.40366  -0.40180  -0.40142  -0.40088
 Alpha  occ. eigenvalues --   -0.39666  -0.39268  -0.38938  -0.37724  -0.37123
 Alpha  occ. eigenvalues --   -0.36530  -0.36393  -0.35642  -0.35180  -0.34784
 Alpha  occ. eigenvalues --   -0.32153  -0.31694  -0.30411  -0.29831  -0.28491
 Alpha  occ. eigenvalues --   -0.25483  -0.25040  -0.22790
 Alpha virt. eigenvalues --   -0.03625  -0.02270   0.01505   0.01900   0.02681
 Alpha virt. eigenvalues --    0.03052   0.03247   0.03377   0.03729   0.04114
 Alpha virt. eigenvalues --    0.04687   0.04805   0.05013   0.05180   0.05431
 Alpha virt. eigenvalues --    0.05533   0.05900   0.06039   0.06285   0.06621
 Alpha virt. eigenvalues --    0.06733   0.07004   0.07064   0.07290   0.07670
 Alpha virt. eigenvalues --    0.08089   0.08129   0.08498   0.08857   0.08963
 Alpha virt. eigenvalues --    0.09229   0.09361   0.09519   0.09742   0.09959
 Alpha virt. eigenvalues --    0.10255   0.10356   0.10643   0.10947   0.11166
 Alpha virt. eigenvalues --    0.11462   0.11515   0.12098   0.12395   0.12645
 Alpha virt. eigenvalues --    0.12807   0.12928   0.13513   0.13567   0.13763
 Alpha virt. eigenvalues --    0.14004   0.14110   0.14362   0.14456   0.14503
 Alpha virt. eigenvalues --    0.14591   0.14827   0.14951   0.15017   0.15454
 Alpha virt. eigenvalues --    0.15571   0.15715   0.15809   0.15931   0.16210
 Alpha virt. eigenvalues --    0.16362   0.16420   0.16535   0.16768   0.16862
 Alpha virt. eigenvalues --    0.17049   0.17098   0.17415   0.17625   0.17726
 Alpha virt. eigenvalues --    0.17849   0.17982   0.18157   0.18503   0.18662
 Alpha virt. eigenvalues --    0.18719   0.18884   0.18930   0.19189   0.19205
 Alpha virt. eigenvalues --    0.19611   0.19649   0.19919   0.20039   0.20184
 Alpha virt. eigenvalues --    0.20284   0.20472   0.20525   0.20690   0.20848
 Alpha virt. eigenvalues --    0.21386   0.21509   0.21638   0.21776   0.22028
 Alpha virt. eigenvalues --    0.22182   0.22436   0.22502   0.22636   0.22720
 Alpha virt. eigenvalues --    0.22881   0.22991   0.23255   0.23384   0.23481
 Alpha virt. eigenvalues --    0.23528   0.23741   0.24021   0.24050   0.24378
 Alpha virt. eigenvalues --    0.24557   0.24826   0.24908   0.25075   0.25458
 Alpha virt. eigenvalues --    0.25699   0.26040   0.26210   0.26395   0.26644
 Alpha virt. eigenvalues --    0.26840   0.26951   0.27229   0.27299   0.27554
 Alpha virt. eigenvalues --    0.27729   0.28056   0.28500   0.28592   0.28761
 Alpha virt. eigenvalues --    0.28832   0.28934   0.29668   0.29770   0.29987
 Alpha virt. eigenvalues --    0.30273   0.30373   0.30700   0.30794   0.30967
 Alpha virt. eigenvalues --    0.31111   0.31263   0.31619   0.31885   0.32040
 Alpha virt. eigenvalues --    0.32387   0.32655   0.32712   0.33057   0.33263
 Alpha virt. eigenvalues --    0.33543   0.33634   0.33939   0.34132   0.34223
 Alpha virt. eigenvalues --    0.34493   0.34546   0.35157   0.35360   0.35642
 Alpha virt. eigenvalues --    0.35955   0.36269   0.36453   0.36772   0.36999
 Alpha virt. eigenvalues --    0.37113   0.37401   0.37538   0.37773   0.37904
 Alpha virt. eigenvalues --    0.38072   0.38403   0.38615   0.39074   0.39306
 Alpha virt. eigenvalues --    0.39549   0.39732   0.39834   0.40056   0.40432
 Alpha virt. eigenvalues --    0.40525   0.40638   0.40965   0.41265   0.41660
 Alpha virt. eigenvalues --    0.41950   0.42004   0.42388   0.42900   0.43060
 Alpha virt. eigenvalues --    0.43410   0.43595   0.44284   0.45115   0.45182
 Alpha virt. eigenvalues --    0.45669   0.46047   0.46239   0.46790   0.47044
 Alpha virt. eigenvalues --    0.47449   0.48008   0.48116   0.48437   0.48754
 Alpha virt. eigenvalues --    0.49326   0.50107   0.50291   0.50469   0.51172
 Alpha virt. eigenvalues --    0.51903   0.53003   0.53180   0.53543   0.53938
 Alpha virt. eigenvalues --    0.54285   0.55208   0.55389   0.56052   0.56419
 Alpha virt. eigenvalues --    0.57134   0.57628   0.58664   0.58779   0.59507
 Alpha virt. eigenvalues --    0.60107   0.60687   0.60903   0.61045   0.61259
 Alpha virt. eigenvalues --    0.61310   0.61848   0.62158   0.62431   0.62697
 Alpha virt. eigenvalues --    0.62801   0.63069   0.63326   0.63773   0.63965
 Alpha virt. eigenvalues --    0.64164   0.64515   0.64639   0.64924   0.65182
 Alpha virt. eigenvalues --    0.65523   0.65823   0.65921   0.66217   0.66908
 Alpha virt. eigenvalues --    0.67456   0.68097   0.68626   0.69411   0.69641
 Alpha virt. eigenvalues --    0.69750   0.69900   0.70082   0.70534   0.70566
 Alpha virt. eigenvalues --    0.70645   0.71201   0.71446   0.71554   0.71775
 Alpha virt. eigenvalues --    0.72419   0.72557   0.72639   0.73265   0.73896
 Alpha virt. eigenvalues --    0.74086   0.74496   0.74761   0.75313   0.75506
 Alpha virt. eigenvalues --    0.75609   0.75904   0.76277   0.76619   0.76928
 Alpha virt. eigenvalues --    0.77077   0.77284   0.77893   0.78259   0.78434
 Alpha virt. eigenvalues --    0.78827   0.78965   0.79424   0.79747   0.79958
 Alpha virt. eigenvalues --    0.80164   0.80474   0.81098   0.81217   0.81446
 Alpha virt. eigenvalues --    0.81597   0.81664   0.82243   0.82525   0.82958
 Alpha virt. eigenvalues --    0.83072   0.83479   0.83947   0.84166   0.84344
 Alpha virt. eigenvalues --    0.84530   0.85130   0.85445   0.85574   0.86176
 Alpha virt. eigenvalues --    0.86695   0.87759   0.88695   0.88854   0.89724
 Alpha virt. eigenvalues --    0.89981   0.90330   0.90691   0.90920   0.91344
 Alpha virt. eigenvalues --    0.91920   0.92975   0.93121   0.93755   0.94322
[...]
 044,-0.00000073,-0.00000213,0.00000081,-0.00000116,-0.00000161,0.00000
 098,0.00000363,0.00000355,-0.00000163,-0.00000178,-0.00000088,0.000000
 94,-0.00000174,-0.00000079,-0.00000041,0.00000331,0.00000287,-0.000000
 50,-0.00000217,0.00000109,-0.00000138,-0.00000163,0.00000131,0.0000018
 7,0.00000305,-0.00000440,-0.00000039,-0.00000092,0.00000221,0.00000174
 ,-0.00000172,0.00000341,0.00000120,0.00000356,-0.00000580,-0.00000173,
 -0.00000164,0.00000282,-0.00000033,-0.00000101,0.00000162,-0.00000136,
 0.00000353,-0.00000550,0.00000133,0.00001541,0.00003408,-0.00000321,0.
 00001160,0.00000517,0.00004913,0.14792972,-0.00066357,0.00005583,-0.00
 010904,0.00054928,0.00087495,-0.00419754,0.00034983,-0.00005423,-0.000
 03494,0.00002456,-0.00004496,-0.00000560,0.00004146,0.00003519,0.00000
 353,-0.00001116,-0.00000531,0.00000008,-0.00001306,0.00001120,0.000000
 70,-0.00009873,-0.00012984,0.00002807,-0.00007932,0.00016408,0.0000012
 0,0.00001544,-0.00001858,-0.00000021,0.00002764,0.00001070,-0.00000345
 ,0.00000688,0.00001525,-0.00000100,-0.00000510,-0.00002576,0.00000001,
 0.00001086,0.00004689,-0.00000185,0.00002765,-0.00005630,0.00001518,-0
 .00002354,-0.00001338,0.00000770,-0.00002018,0.00002475,0.00000697,0.0
 0000472,0.00000199,-0.00000351,0.00000475,0.00000139,0.00000109,0.0000
 0163,0.00000385,-0.00000070,0.00000068,-0.00000548,-0.00000109,0.00001
 127,-0.00000344,-0.00000046,0.00000832,-0.00000476,-0.00000503,-0.0009
 8505,-0.00012567,-0.00045592,-0.00008133,0.00021407,0.00042584,0.00031
 625,-0.00138238,0.00195727,0.00025567,0.00013885,0.00021732,0.01228479
 ,-0.00810262,-0.00719182,0.11873643,-0.19311834,-0.10240124,-0.0026919
 0,0.00291400,0.00037136,-0.00069578,0.00081367,-0.00130125,0.00000304,
 -0.00000126,-0.00000188,0.00000200,0.00000060,-0.00000226,-0.00000241,
 -0.00001084,-0.00000652,0.00000490,0.00002167,-0.00000264,-0.00000103,
 0.00000321,-0.00000162,0.00000133,-0.00001062,-0.00000060,-0.00000114,
 -0.00000231,0.00000008,-0.00000130,-0.00000191,-0.00000100,0.00000440,
 0.00000417,0.00000044,-0.00000082,-0.00000291,0.00000010,-0.00000220,-
 0.00000026,0.00000233,0.00000448,0.00000392,-0.00000157,-0.00000222,-0
 .00000024,0.00000152,-0.00000177,-0.00000139,0.00000030,0.00000371,0.0
 0000335,-0.00000074,-0.00000258,0.00000118,-0.00000118,-0.00000215,0.0
 0000085,0.00000282,0.00000320,-0.00000465,-0.00000045,-0.00000103,0.00
 000139,0.00000289,-0.00000244,0.00000222,0.00000194,0.00000260,-0.0000
 0640,-0.00000243,-0.00000307,0.00000216,-0.00000043,-0.00000107,0.0000
 0211,-0.00000130,0.00000335,-0.00000621,0.00000183,-0.00002438,0.00007
 544,0.00003783,0.00005259,0.00005771,0.00007070,-0.12760602,0.19802493
 ,-0.00034036,-0.00070154,0.00041359,-0.00093821,-0.00481809,0.00187618
 ,0.00001275,0.00006065,0.00004475,0.00002860,0.00000105,-0.00001091,-0
 .00001100,0.00000007,0.00000110,-0.00001013,-0.00000534,0.00000352,-0.
 00000328,0.00001240,0.00000287,-0.00005703,-0.00006830,0.00004160,0.00
 001999,0.00000594,-0.00001608,-0.00000154,0.00000605,-0.00000066,0.000
 00982,0.00001150,-0.00000667,-0.00000355,-0.00000510,-0.00000213,0.000
 01716,-0.00001123,-0.00000242,0.00000680,0.00000682,-0.00000966,-0.000
 04717,-0.00002770,0.00000865,0.00000546,0.00000161,-0.00000316,0.00000
 210,0.00001956,-0.00000078,0.00000459,0.00000255,-0.00000309,0.0000064
 4,0.00000332,0.00000232,0.00000262,0.00000410,0.00000016,0.00000124,-0
 .00000655,-0.00000015,-0.00000108,-0.00000624,0.00000409,-0.00000191,-
 0.00000467,-0.00000220,-0.00014575,0.00056919,-0.00011860,0.00039437,0
 .00003289,0.00001435,0.00146829,0.00226515,-0.00168201,-0.00043942,-0.
 00004198,-0.00037937,0.01061591,-0.01230885,-0.00306729,0.06817935,-0.
 10191418,-0.09752165,-0.00337012,0.00514056,0.00492270,-0.00224755,-0.
 00066626,0.00122408,0.00000201,-0.00000222,0.00000069,0.00000534,0.000
 00134,0.00000135,-0.00000265,-0.00001249,0.00001047,-0.00001268,0.0000
 0976,-0.00002164,0.00000169,0.00000584,0.00000090,-0.00000802,0.000005
 04,0.00000641,-0.00000179,-0.00000069,-0.00000190,-0.00000157,-0.00000
 237,0.00000011,0.00000446,0.00000331,0.00000080,-0.00000159,-0.0000011
 4,0.00000186,-0.00000017,-0.00000309,0.,0.00000364,0.00000362,-0.00000
 225,-0.00000146,-0.00000141,0.00000116,-0.00000257,-0.00000009,-0.0000
 0214,0.00000360,0.00000278,-0.00000025,-0.00000206,0.00000144,-0.00000
 072,-0.00000082,0.00000301,-0.00000060,0.00000285,-0.00000443,-0.00000
 010,0.00000141,0.00000450,-0.00000170,0.00000129,0.00000295,0.00000257
 ,0.00000322,-0.00000496,-0.00000134,0.00000255,0.00000425,-0.00000063,
 -0.00000161,0.00000152,-0.00000162,0.00000385,-0.00000472,0.00000005,-
 0.00003049,-0.00008941,0.00007263,-0.00000222,-0.00003778,0.00007461,-
 0.07376670,0.11179763,0.09460600,0.00013511,-0.00002982,-0.00000379,0.
 00100213,0.00347843,0.00158236,-0.00016955,0.00002526,0.00001949,-0.00
 002394,0.00001429,0.00000039,-0.00002991,-0.00000788,0.00000741,0.0000
 0747,0.00000446,-0.00000235,0.00000705,-0.00000847,-0.00000297,0.00006
 450,0.00009393,0.00000722,0.00004103,-0.00011970,-0.00002607,-0.000009
 65,0.00000729,0.00000257,-0.00000860,-0.00000099,0.00000268,-0.0000046
 1,-0.00000466,0.00000047,-0.00000028,0.00000360,0.00000278,-0.00000673
 ,-0.00002668,0.00000317,0.00000134,0.00002699,-0.00000025,0.00001039,0
 .00000713,-0.00000002,0.00000477,-0.00000764,0.00000373,-0.00000344,-0
 .00000186,0.00000254,-0.00000416,-0.00000243,-0.00000187,-0.00000155,-
 0.00000352,-0.00000010,-0.00000058,0.00000452,0.00000037,-0.00000606,0
 .00000442,-0.00000133,-0.00000390,0.00000373,0.00000314,0.00003619,-0.
 00005468,-0.00012393,-0.00012163,-0.00000029,-0.00004990,0.00036351,-0
 .00088018,-0.00101961,-0.00038502,0.00002294,0.00012268,-0.00554713,0.
 00102682,-0.00091787,-0.00597132,-0.01767961,-0.01598791,-0.14407818,-
 0.09270562,-0.10084492,0.00954275,0.00817843,0.00792452,-0.00000330,0.
 00000061,-0.00000028,-0.00000277,-0.00000005,-0.00000033,0.00000201,0.
 00001114,-0.00000338,-0.00000122,-0.00001430,-0.00000373,-0.00000021,-
 0.00000345,-0.00000060,-0.00000015,0.00000586,-0.00000252,0.00000114,0
 .00000076,0.00000089,0.00000063,0.00000174,0.00000017,-0.00000290,-0.0
 0000265,-0.00000060,0.00000069,0.00000127,-0.00000102,0.00000051,0.000
 00190,-0.00000019,-0.00000249,-0.00000271,0.00000149,0.00000128,0.0000
 0099,-0.00000037,0.00000156,0.00000029,0.00000067,-0.00000258,-0.00000
 190,0.00000030,0.00000212,-0.00000027,0.00000156,0.00000078,-0.0000014
 9,-0.00000094,-0.00000223,0.00000281,0.,-0.00000108,-0.00000269,0.0000
 0010,0.00000166,-0.00000106,-0.00000260,-0.00000148,0.00000396,0.00000
 181,0.00000088,-0.00000203,-0.00000015,0.00000136,-0.00000069,0.000001
 81,-0.00000232,0.00000368,-0.00000128,-0.00004616,0.00001105,-0.000007
 07,0.00001072,0.00000834,-0.00002802,0.00070726,0.00023309,0.00080735,
 0.14446325,-0.00008778,0.00001615,0.00001203,0.00090925,0.00046612,-0.
 00494208,-0.00005093,0.00000055,0.00000621,-0.00000884,0.00000756,0.00
 000236,-0.00000365,-0.00000332,-0.00000104,0.00000441,0.00000243,-0.00
 000171,0.00000162,-0.00000267,-0.00000045,0.00002579,0.00002670,-0.000
 00767,0.00000294,-0.00001997,0.00000538,-0.00000085,0.00000140,0.00000
 050,-0.00000486,-0.00000478,0.00000017,-0.00000017,-0.00000148,0.00000
 074,-0.00000287,0.00000516,0.00000099,-0.00000127,-0.00000866,0.000005
 23,0.00000538,0.00000919,-0.00000278,0.00000084,0.00000087,0.00000115,
 0.00000338,-0.00000491,-0.00000005,-0.00000166,-0.00000095,0.00000132,
 -0.00000242,-0.00000151,-0.00000088,-0.00000076,-0.00000165,0.00000006
 ,-0.00000007,0.00000138,-0.00000032,0.00000087,0.00000160,-0.00000171,
 0.00000086,0.00000120,0.00000074,0.00004440,-0.00001910,-0.00001529,-0
 .00006819,-0.00003167,0.00011810,0.00007853,0.00060781,-0.00017142,0.0
 0007302,-0.00011914,-0.00001733,0.00239438,0.00078254,-0.00092066,0.00
 398671,0.00567950,0.00433210,-0.09278235,-0.14826194,-0.11547848,-0.01
 308470,-0.00672157,-0.01210440,-0.00000063,0.00000106,-0.00000033,-0.0
 0000167,-0.00000041,-0.00000022,0.00000169,0.00000462,-0.00000354,-0.0
 0000282,-0.00000138,-0.00000241,0.00000015,-0.00000183,-0.00000147,0.0
 0000249,-0.00000099,0.00000092,0.00000086,0.00000012,0.00000090,0.0000
 0037,0.00000111,-0.00000023,-0.00000202,-0.00000151,-0.00000031,0.0000
 0079,0.00000059,-0.00000110,0.00000011,0.00000155,0.00000007,-0.000001
 82,-0.00000163,0.00000084,0.00000070,0.00000080,-0.00000046,0.00000108
 ,-0.00000005,0.00000088,-0.00000166,-0.00000135,0.00000007,0.00000040,
 -0.00000056,-0.00000002,0.00000033,-0.00000098,0.00000041,-0.00000071,
 0.00000167,0.,-0.00000001,-0.00000120,0.00000032,-0.00000110,-0.000001
 01,0.00000017,-0.00000107,0.00000172,0.00000023,-0.00000099,-0.0000012
 3,0.00000024,0.00000034,-0.00000062,0.00000027,-0.00000099,0.00000169,
 0.,0.00000421,0.00000282,-0.00000509,0.00000460,0.00008574,0.00005006,
 -0.00082511,-0.00077252,0.00079086,0.09953252,0.14951172,0.00000751,-0
 .00002517,-0.00004042,-0.00038432,-0.00438326,0.00300878,-0.00010574,0
 .00001724,0.00001257,-0.00001038,0.00000839,-0.00000086,-0.00002200,-0
 .00000683,0.00000574,0.00000429,0.00000249,-0.00000018,0.00000593,-0.0
 0000509,0.00000004,0.00003118,0.00004995,0.00001168,0.00003071,-0.0000
 7321,-0.00002261,-0.00000616,0.00000707,0.00000064,-0.00000270,0.00000
 028,0.00000086,-0.00000419,-0.00000367,-0.00000073,0.00000221,0.000001
 11,0.,-0.00000183,-0.00001691,-0.00000431,-0.00000363,0.00001658,-0.00
 000017,0.00000776,0.00000630,-0.00000226,0.00000073,-0.00000478,-0.000
 00283,-0.00000118,-0.00000139,0.00000144,-0.00000116,-0.00000079,-0.00
 000074,-0.00000105,-0.00000177,0.00000037,-0.00000056,0.00000253,0.000
 00024,-0.00000462,0.00000168,-0.00000002,-0.00000443,0.00000212,0.0000
 0183,0.00003175,0.00000729,0.00001969,0.00006489,0.00012860,-0.0000616
 0,-0.00013789,-0.00036291,0.00053724,0.00001719,0.00010907,-0.00005123
 ,0.00010135,-0.00114970,0.00152812,0.00165786,-0.00037032,0.00144741,-
 0.10101270,-0.11536979,-0.14986844,-0.00958556,-0.00759656,-0.00390745
 ,-0.00000205,0.00000062,0.00000054,-0.00000096,-0.00000055,0.00000096,
 0.00000026,0.00000321,0.00000265,0.00000146,-0.00000915,0.00000688,0.0
 0000137,-0.00000088,0.00000115,-0.00000080,0.00000463,-0.00000090,0.00
 000064,0.00000118,-0.00000028,0.00000024,0.00000141,0.00000043,-0.0000
 0212,-0.00000192,0.00000008,-0.00000021,0.00000175,0.00000034,0.000000
 99,0.00000007,-0.00000088,-0.00000207,-0.00000182,0.00000060,0.0000009
 2,0.00000018,-0.00000039,0.00000078,0.00000087,-0.00000047,-0.00000162
 ,-0.00000169,0.00000041,0.00000117,-0.00000083,0.00000072,0.00000118,-
 0.00000024,-0.00000170,-0.00000163,0.00000235,0.00000037,0.00000109,-0
 .00000031,-0.00000164,0.00000137,-0.00000178,-0.00000038,-0.00000177,0
 .00000309,0.00000116,0.00000176,-0.00000116,0.00000056,0.00000048,-0.0
 0000117,0.00000045,-0.00000197,0.00000309,-0.00000063,-0.00000235,-0.0
 0001264,0.00000075,0.00000230,-0.00009525,0.00005259,-0.00005669,0.000
 99608,-0.00114203,0.10850367,0.12569705,0.15076508,-0.00005252,0.00007
 837,-0.00018669,-0.00967521,0.00464330,0.00218745,-0.00004449,-0.00007
 767,0.00001980,-0.00001121,-0.00000150,0.00000279,-0.00000470,-0.00000
 124,-0.00000133,0.00000395,0.00000221,-0.00000088,0.00000245,-0.000003
 12,-0.00000001,0.00001213,0.00003982,-0.00000861,0.00001416,-0.0000269
 0,0.00000499,-0.00000072,0.00000051,0.,-0.00000461,-0.00000242,0.00000
 087,-0.00000120,0.00000179,0.00000047,-0.00000196,0.00000357,-0.000000
 16,-0.00000162,-0.00000582,0.00000050,0.00000055,0.00001078,-0.0000032
 2,0.00000097,0.00000137,0.00000042,0.00000236,-0.00000550,-0.00000106,
 -0.00000190,-0.00000087,0.00000115,-0.00000243,-0.00000088,-0.00000038
 ,-0.00000094,-0.00000147,0.00000023,-0.00000023,0.00000162,-0.00000018
 ,-0.00000094,0.00000134,-0.00000073,-0.00000081,0.00000119,0.00000101,
 -0.00003786,0.00004681,0.00008232,0.00004442,0.00001669,-0.00002502,-0
 .00023658,0.00064439,0.00007474,-0.00004754,-0.00000785,0.00005072,-0.
 00059547,-0.00203231,-0.00169864,0.00094083,0.00177236,0.00040158,-0.0
 0203013,-0.00152619,-0.00231438,-0.33351118,0.09636682,0.01065680,-0.0
 0000131,0.00000027,0.00000010,-0.00000126,-0.00000013,0.00000036,0.000
 00238,0.00000477,-0.00000070,-0.00000060,-0.00000533,0.00000413,-0.000
 00027,-0.00000192,-0.00000033,0.00000073,0.00000096,-0.00000022,0.0000
 0067,0.00000038,0.00000052,0.00000067,0.00000086,0.00000010,-0.0000016
 9,-0.00000129,-0.00000023,0.00000067,0.00000059,-0.00000071,0.00000031
 ,0.00000077,-0.00000038,-0.00000154,-0.00000135,0.00000071,0.00000060,
 0.00000031,-0.00000057,0.00000085,0.00000009,0.00000050,-0.00000135,-0
 .00000109,0.00000014,0.00000058,-0.00000053,0.00000013,0.00000051,-0.0
 0000054,-0.00000027,-0.00000086,0.00000139,0.00000015,0.00000032,-0.00
 000072,-0.00000034,-0.00000012,-0.00000103,-0.00000008,-0.00000096,0.0
 0000172,0.00000041,-0.00000005,-0.00000091,0.00000024,0.00000026,-0.00
 000068,0.00000019,-0.00000102,0.00000166,-0.00000023,-0.00000564,0.000
 00087,-0.00000640,0.00003553,0.00000942,0.00003803,-0.00011770,0.00002
 755,-0.00016426,0.00003306,-0.00014102,0.00088130,0.34529969,0.0000465
 4,0.00022162,-0.00011579,-0.01323245,0.00361911,0.00218284,-0.00000531
 ,-0.00018214,0.00009058,-0.00001637,-0.00001418,0.00000185,-0.00000309
 ,0.00000496,0.00000081,0.00000530,0.00000313,-0.00000147,0.00000242,-0
 .00000351,-0.00000083,0.00000251,0.00006087,0.00001280,0.00001702,-0.0
 0003614,-0.00000290,0.00000004,-0.00000056,0.00000110,-0.00000504,-0.0
 0000160,0.00000135,-0.00000361,0.00000577,-0.00000056,-0.00000304,0.00
 000224,-0.00000010,-0.00000542,-0.00000196,-0.00000010,0.00000075,0.00
 001069,-0.00000075,0.00000014,0.00000076,0.00000094,0.00000362,-0.0000
 0443,0.00000188,-0.00000291,-0.00000087,0.00000136,-0.00000371,-0.0000
 0122,-0.00000053,-0.00000138,-0.00000215,0.00000021,-0.00000031,0.0000
 0192,-0.00000023,-0.00000108,0.00000194,-0.00000102,-0.00000042,0.0000
 0142,0.00000103,-0.00022660,-0.00003924,-0.00022555,-0.00005516,0.0001
 5374,0.00009241,-0.00028306,0.00144113,-0.00059548,0.00001488,-0.00006
 154,0.00017496,-0.00254962,-0.00270348,-0.00267496,0.00219117,-0.00072
 500,-0.00497871,0.01919460,0.00128959,0.00294794,0.09483846,-0.0699919
 6,-0.01742793,-0.00000223,-0.00000012,-0.00000072,-0.00000185,0.000000
 25,0.00000010,0.00000411,0.00000810,-0.00000208,-0.00000015,-0.0000088
 5,0.00000017,-0.00000132,-0.00000318,-0.00000084,0.00000012,0.00000158
 ,-0.00000206,0.00000098,0.00000024,0.00000101,0.00000109,0.00000104,0.
 00000005,-0.00000227,-0.00000162,-0.00000036,0.00000116,0.00000047,-0.
 00000123,0.00000017,0.00000126,-0.00000032,-0.00000200,-0.00000174,0.0
 0000106,0.00000078,0.00000050,-0.00000080,0.00000126,-0.00000009,0.000
 00098,-0.00000186,-0.00000135,0.00000013,0.00000076,-0.00000043,0.0000
 0027,0.00000031,-0.00000092,0.00000007,-0.00000085,0.00000153,0.000000
 04,-0.00000017,-0.00000128,0.00000028,-0.00000024,-0.00000077,-0.00000
 060,-0.00000066,0.00000179,0.00000052,-0.00000064,-0.00000111,-0.00000
 008,0.00000064,-0.00000054,0.00000045,-0.00000094,0.00000171,-0.000000
 22,-0.00001018,0.00000386,-0.00000068,0.00003808,0.00003559,0.00001464
 ,0.00104624,0.00038098,-0.00003045,-0.00115492,-0.00123475,0.00242521,
 -0.09983430,0.06776895,-0.00048882,-0.00030902,-0.00020050,-0.01234059
 ,0.00599868,-0.00065313,-0.00016220,0.00012904,-0.00012410,-0.00000573
 ,0.00002090,0.00000257,-0.00001831,-0.00001057,0.00000356,0.00000147,0
 .00000040,0.00000036,0.00000260,-0.00000171,0.00000007,0.00004205,0.00
 002111,-0.00002552,0.00002235,-0.00005445,-0.00000855,-0.00000463,0.00
 000441,-0.00000024,-0.00000185,0.00000070,-0.00000007,0.00000129,-0.00
 000629,0.00000090,0.00000276,-0.00000003,0.00000034,0.00000023,-0.0000
 1628,-0.00000135,-0.00000079,0.00001095,0.00000460,0.00000473,0.000003
 83,-0.00000066,-0.00000004,-0.00000160,-0.00000440,-0.00000050,-0.0000
 0077,0.00000081,-0.00000010,-0.00000016,-0.00000048,0.00000003,-0.0000
 0050,-0.00000008,0.,0.00000090,0.00000053,-0.00000217,0.00000033,-0.00
 000002,-0.00000187,0.00000120,0.00000101,0.00008806,0.00023659,0.00044
 060,0.00015763,-0.00012543,-0.00009036,-0.00062380,-0.00015744,0.00195
 079,-0.00002772,0.00015740,-0.00003130,-0.00258510,-0.00260472,-0.0027
 8049,0.00069867,-0.00515113,0.00184711,0.01480977,-0.00168411,0.004753
 71,0.00969403,-0.01696671,-0.03541623,-0.00000016,0.00000061,0.0000014
 1,-0.00000020,-0.00000022,0.00000035,-0.00000259,-0.00000119,0.0000019
 4,-0.00000384,-0.00000093,-0.00000094,0.00000125,-0.00000025,0.0000013
 9,0.00000010,0.00000243,0.00000196,-0.00000033,0.00000093,-0.00000059,
 0.00000022,0.00000026,0.00000048,-0.00000051,-0.00000076,0.,-0.0000002
 8,0.00000084,0.00000067,0.00000053,-0.00000054,-0.00000066,-0.00000052
 ,-0.00000056,0.00000024,0.00000033,-0.00000027,-0.00000021,0.00000005,
 0.00000067,-0.00000058,-0.00000041,-0.00000041,0.00000033,0.00000026,-
 0.00000043,0.00000010,0.00000057,0.00000020,-0.00000088,-0.00000054,0.
 00000068,0.00000020,0.00000042,0.00000019,-0.00000100,0.00000049,-0.00
 000027,0.00000003,-0.00000039,0.00000095,0.00000058,0.00000116,-0.0000
 0015,0.00000049,-0.00000033,-0.00000069,0.00000003,-0.00000059,0.00000
 108,-0.00000038,-0.00000937,-0.00000702,0.00000048,0.00003890,-0.00003
 852,0.00005767,0.00068052,-0.00021350,0.00066422,0.00003065,0.00265106
 ,-0.00229924,-0.00999684,0.01811031,0.03190247\\-0.00000100,0.00000135
 ,0.00000251,0.00000396,-0.00000688,-0.00000029,0.00001030,-0.00000232,
 -0.00000080,-0.00000218,0.00000458,-0.00000188,0.00000152,-0.00000648,
 0.00000199,-0.00000171,-0.00000071,-0.00000015,-0.00000044,0.00000169,
 0.00000093,-0.00000521,-0.00000518,-0.00000318,-0.00000605,0.00001332,
 0.00000503,-0.00001468,0.00000134,0.00000233,-0.00001647,0.00000304,0.
 00000262,0.00001034,-0.00000008,0.00000025,0.00000930,-0.00000212,-0.0
 0000246,-0.00000568,-0.00000312,0.00000144,-0.00000562,0.00000285,-0.0
 0000084,0.00001620,0.00000121,-0.00000236,0.00001623,-0.00000615,-0.00
 000262,-0.00000083,-0.00000205,-0.00000116,-0.00000014,-0.00000218,0.0
 0000276,-0.00000422,0.00000009,0.00000039,-0.00000389,0.00000117,0.000
 00131,0.00000052,0.00000170,0.00000149,-0.00000031,0.00000211,-0.00000
 217,-0.00000106,-0.00000042,-0.00000106,-0.00000030,-0.00000261,0.0000
 0188,-0.00000620,-0.00000403,-0.00001025,0.00000029,0.00000288,0.00000
 314,0.00000400,0.00001183,0.00000804,-0.00000206,-0.00000487,-0.000005
 89,0.00000127,-0.00000144,0.00000048,-0.00000194,0.00000208,-0.0000027
 3,0.00000026,-0.00000048,-0.00000009,0.00000036,0.00000008,0.00000024,
 0.00000074,0.00000106,-0.00000012,0.00000059,-0.00000117,-0.00000012,-
 0.00000311,-0.00000024,0.00000034,-0.00000299,0.00000124,0.00000065,0.
 00000077,-0.00000047,0.00000049,-0.00000003,0.00000116,0.00000037,0.00
 000022,0.00000083,0.00000185,0.00000048,0.00000145,-0.00000049,0.00000
 112,-0.00000041,-0.00000033,-0.00000017,0.00000084,-0.00000106,0.00000
 054,0.00000025,-0.00000130,0.00000116,0.00000033,0.00000178,0.00000138
 ,-0.00000139,0.00000042,0.00000076,-0.00000043,0.00000179,0.00000061,-
 0.00000068,-0.00000141,0.00000163,0.00000088,-0.00000006,0.00000111,0.
 00000019,-0.00000036,-0.00000022,-0.00000112,-0.00000007,-0.00000039,-
 0.00000074,-0.00000128,-0.00000024,-0.00000135,0.00000056,0.00000095,0
 .00000005,0.00000046,-0.00000022,-0.00000072,0.00000172,0.00000130,-0.
 00000035,-0.00000079,-0.00000068,-0.00000072,-0.00000146,0.00000119,0.
 00000063,0.00000113,-0.00000103,0.00000081,0.00000001,-0.00000003,-0.0
 0000014,-0.00000159\\\@
 The archive entry for this job was punched.


 THIS CURIOUS WORLD WHICH WE INHABIT IS MORE WONDERFUL THAN IT IS CONVENIENT;
 MORE BEAUTIFUL THAN IT IS USEFUL;
 IT IS MORE TO BE ADMIRED THAN IT IS TO BE USED.

                                                                 -- THOREAU
 Job cpu time:       3 days 13 hours 31 minutes 39.3 seconds.
 Elapsed time:       0 days  3 hours 18 minutes 43.8 seconds.
 File lengths (MBytes):  RWF=   3766 Int=      0 D2E=      0 Chk=     63 Scr=      1
 Normal termination of Gaussian 16 at Tue Dec  5 23:42:01 2023.
