 Entering Gaussian System, Link 0=g16
 Input=/home/exlonk/in_progress/4108.inp
 Output=/home/exlonk/in_progress/4108.log
 Initial command:
 /opt/gaussian/g16-c01/g16/l1.exe "/lustre/tmp/slurm/2191062/Gau-4006985.inp" -scrdir="/lustre/tmp/slurm/2191062/"
 Default CPUs for threads: 0-3,7-9,13-15,19-20,22,24-27,31-33,37-39,43-44,46
 Default is to use a total of  26 processors:
                               26 via shared-memory
                                1 via Linda
 Entering Link 1 = /opt/gaussian/g16-c01/g16/l1.exe PID=   4006990.
  
 Copyright (c) 1988-2019, Gaussian, Inc.  All Rights Reserved.
  
 This is part of the Gaussian(R) 16 program.  It is based on
 the Gaussian(R) 09 system (copyright 2009, Gaussian, Inc.),
 the Gaussian(R) 03 system (copyright 2003, Gaussian, Inc.),
 the Gaussian(R) 98 system (copyright 1998, Gaussian, Inc.),
 the Gaussian(R) 94 system (copyright 1995, Gaussian, Inc.),
 the Gaussian 92(TM) system (copyright 1992, Gaussian, Inc.),
 the Gaussian 90(TM) system (copyright 1990, Gaussian, Inc.),
 the Gaussian 88(TM) system (copyright 1988, Gaussian, Inc.),
 the Gaussian 86(TM) system (copyright 1986, Carnegie Mellon
 University), and the Gaussian 82(TM) system (copyright 1983,
 Carnegie Mellon University). Gaussian is a federally registered
 trademark of Gaussian, Inc.
  
 This software contains proprietary and confidential information,
 including trade secrets, belonging to Gaussian, Inc.
  
 This software is provided under written license and may be
 used, copied, transmitted, or stored only in accord with that
 written license.
  
 The following legend is applicable only to US Government
 contracts under FAR:
  
                    RESTRICTED RIGHTS LEGEND
  
 Use, reproduction and disclosure by the US Government is
 subject to restrictions as set forth in subparagraphs (a)
 and (c) of the Commercial Computer Software - Restricted
 Rights clause in FAR 52.227-19.
  
 Gaussian, Inc.
 340 Quinnipiac St., Bldg. 40, Wallingford CT 06492
  
  
 ---------------------------------------------------------------
 Warning -- This program may not be used in any manner that
 competes with the business of Gaussian, Inc. or will provide
 assistance to any competitor of Gaussian, Inc.  The licensee
 of this program is prohibited from giving any competitor of
 Gaussian, Inc. access to this program.  By using this program,
 the user acknowledges that Gaussian, Inc. is engaged in the
 business of creating and licensing software in the field of
 computational chemistry and represents and warrants to the
 licensee that it is not a competitor of Gaussian, Inc. and that
 it will not use this program in any manner prohibited above.
 ---------------------------------------------------------------
  

 Cite this work as:
 Gaussian 16, Revision C.01,
 M. J. Frisch, G. W. Trucks, H. B. Schlegel, G. E. Scuseria, 
 M. A. Robb, J. R. Cheeseman, G. Scalmani, V. Barone, 
 G. A. Petersson, H. Nakatsuji, X. Li, M. Caricato, A. V. Marenich, 
 J. Bloino, B. G. Janesko, R. Gomperts, B. Mennucci, H. P. Hratchian, 
 J. V. Ortiz, A. F. Izmaylov, J. L. Sonnenberg, D. Williams-Young, 
 F. Ding, F. Lipparini, F. Egidi, J. Goings, B. Peng, A. Petrone, 
 T. Henderson, D. Ranasinghe, V. G. Zakrzewski, J. Gao, N. Rega, 
 G. Zheng, W. Liang, M. Hada, M. Ehara, K. Toyota, R. Fukuda, 
 J. Hasegawa, M. Ishida, T. Nakajima, Y. Honda, O. Kitao, H. Nakai, 
 T. Vreven, K. Throssell, J. A. Montgomery, Jr., J. E. Peralta, 
 F. Ogliaro, M. J. Bearpark, J. J. Heyd, E. N. Brothers, K. N. Kudin, 
 V. N. Staroverov, T. A. Keith, R. Kobayashi, J. Normand, 
 K. Raghavachari, A. P. Rendell, J. C. Burant, S. S. Iyengar, 
 J. Tomasi, M. Cossi, J. M. Millam, M. Klene, C. Adamo, R. Cammi, 
 J. W. Ochterski, R. L. Martin, K. Morokuma, O. Farkas, 
 J. B. Foresman, and D. J. Fox, Gaussian, Inc., Wallingford CT, 2019.
 
 ******************************************
 Gaussian 16:  EM64L-G16RevC.01  3-Jul-2019
                 6-Dec-2023 
 ******************************************
 %nproc=26
 Will use up to   26 processors via shared memory.
 %mem=16GB
 %chk=/home/exlonk/in_progress/4108.chk
 ------------------------------
 #p MN15/6-311++G(d,p) opt freq
 ------------------------------
 1/18=20,19=15,26=3,38=1/1,3;
 2/9=110,12=2,17=6,18=5,40=1/2;
 3/5=4,6=6,7=1111,11=2,25=1,30=1,71=1,74=-73/1,2,3;
 4//1;
 5/5=2,38=5/2;
 6/7=2,8=2,9=2,10=2,28=1/1;
 7//1,2,3,16;
 1/18=20,19=15,26=3/3(2);
 2/9=110/2;
 99//99;
 2/9=110/2;
 3/5=4,6=6,7=1111,11=2,25=1,30=1,71=1,74=-73/1,2,3;
 4/5=5,16=3,69=1/1;
 5/5=2,38=5/2;
 7//1,2,3,16;
 1/18=20,19=15,26=3/3(-5);
 2/9=110/2;
 6/7=2,8=2,9=2,10=2,19=2,28=1/1;
 99/9=1/99;
 Leave Link    1 at Wed Dec  6 20:23:20 2023, MaxMem=  2147483648 cpu:               4.1 elap:               0.2
 (Enter /opt/gaussian/g16-c01/g16/l101.exe)
 ---------------
 name file: 4108
 ---------------
 Symbolic Z-matrix:
 Charge =  0 Multiplicity = 1
 S                    -4.0856    0.9699    0.5107 
 S                     4.1114    0.9334    0.5184 
 S                    -7.6529    3.1901   -0.176 
 S                     7.699     3.1227   -0.1614 
 N                    -0.0094   -4.1327    0.3242 
 C                    -0.7153   -2.0688   -0.1385 
 C                     0.7158   -2.0752   -0.1372 
 C                    -1.1377   -3.3661    0.1524 
 C                     1.1261   -3.3762    0.1545 
 C                    -0.0161   -5.547     0.6412 
 C                    -1.6921   -1.0754   -0.3612 
 C                     1.7017   -1.0906   -0.3582 
 C                    -2.489    -3.7223    0.2324 
 C                     2.4739   -3.7444    0.2369 
 C                    -3.0472   -1.4164   -0.2846 
 C                     3.0537   -1.4435   -0.2791 
 C                    -3.4374   -2.7209    0.0079 
 C                     3.4317   -2.7515    0.0142 
 C                    -0.3364   -5.7972    2.1069 
 C                    -4.0498   -0.4033   -0.5117 
 C                     4.0654   -0.4393   -0.5042 
 C                    -5.0375   -0.3595   -1.4709 
 C                     5.0553   -0.4041   -1.4615 
 C                    -5.4253    1.6274   -0.3292 
 C                     5.4582    1.5794   -0.319 
 C                    -5.8342    0.8169   -1.3653 
 C                     5.8622    0.7653   -1.3543 
 C                    -5.9878    2.8695    0.0631 
 C                     6.0307    2.8168    0.0742 
 C                    -5.3363    3.9311    0.6517 
 C                     5.3872    3.8839    0.6612 
 C                    -6.2159    5.0219    0.9099 
 C                     6.2755    4.9672    0.921 
 C                    -7.5059    4.7526    0.5089 
 C                     7.564     4.6867    0.5226 
 H                    -0.7616   -6.0283   -0.002 
 H                     0.9499   -5.9868    0.3791 
 H                    -1.3771   -0.0624   -0.5992 
 H                     1.3962   -0.0748   -0.5967 
 H                    -2.8048   -4.7355    0.4568 
 H                     2.7856   -4.7564    0.4704 
 H                    -4.4916   -2.9849    0.0695 
 H                     4.4834   -3.0243    0.0797 
 H                     0.4035   -5.3169    2.7562 
 H                    -0.3257   -6.8714    2.3162 
 H                    -1.322    -5.4105    2.3833 
 H                    -5.1867   -1.1284   -2.2189 
 H                     5.1992   -1.1743   -2.2092 
 H                    -6.6563    1.0387   -2.0346 
 H                     6.6874    0.9799   -2.0221 
 H                    -4.2795    3.9523    0.8879 
 H                     4.3301    3.9142    0.8953 
 H                    -5.9172    5.9574    1.3647 
 H                     5.9839    5.9053    1.375 
 H                    -8.3689    5.3988    0.5848 
 H                     8.4324    5.3256    0.6001 
 
 ITRead=  0  0  0  0  0  0  0  0  0  0  0  0  0  0  0  0  0  0  0  0
 ITRead=  0  0  0  0  0  0  0  0  0  0  0  0  0  0  0  0  0  0  0  0
 ITRead=  0  0  0  0  0  0  0  0  0  0  0  0  0  0  0  0
 MicOpt= -1 -1 -1 -1 -1 -1 -1 -1 -1 -1 -1 -1 -1 -1 -1 -1 -1 -1 -1 -1
 MicOpt= -1 -1 -1 -1 -1 -1 -1 -1 -1 -1 -1 -1 -1 -1 -1 -1 -1 -1 -1 -1
 MicOpt= -1 -1 -1 -1 -1 -1 -1 -1 -1 -1 -1 -1 -1 -1 -1 -1
 NAtoms=     56 NQM=       56 NQMF=       0 NMMI=      0 NMMIF=      0
                NMic=       0 NMicF=      0.
                    Isotopes and Nuclear Properties:
 (Nuclear quadrupole moments (NQMom) in fm**2, nuclear magnetic moments (NMagM)
  in nuclear magnetons)

  Atom         1           2           3           4           5           6           7           8           9          10
 IAtWgt=          32          32          32          32          14          12          12          12          12          12
 AtmWgt=  31.9720718  31.9720718  31.9720718  31.9720718  14.0030740  12.0000000  12.0000000  12.0000000  12.0000000  12.0000000
 NucSpn=           0           0           0           0           2           0           0           0           0           0
 AtZEff=  -0.0000000  -0.0000000  -0.0000000  -0.0000000  -0.0000000  -0.0000000  -0.0000000  -0.0000000  -0.0000000  -0.0000000
 NQMom=    0.0000000   0.0000000   0.0000000   0.0000000   2.0440000   0.0000000   0.0000000   0.0000000   0.0000000   0.0000000
 NMagM=    0.0000000   0.0000000   0.0000000   0.0000000   0.4037610   0.0000000   0.0000000   0.0000000   0.0000000   0.0000000
 AtZNuc=  16.0000000  16.0000000  16.0000000  16.0000000   7.0000000   6.0000000   6.0000000   6.0000000   6.0000000   6.0000000

  Atom        11          12          13          14          15          16          17          18          19          20
 IAtWgt=          12          12          12          12          12          12          12          12          12          12
 AtmWgt=  12.0000000  12.0000000  12.0000000  12.0000000  12.0000000  12.0000000  12.0000000  12.0000000  12.0000000  12.0000000
 NucSpn=           0           0           0           0           0           0           0           0           0           0
 AtZEff=  -0.0000000  -0.0000000  -0.0000000  -0.0000000  -0.0000000  -0.0000000  -0.0000000  -0.0000000  -0.0000000  -0.0000000
 NQMom=    0.0000000   0.0000000   0.0000000   0.0000000   0.0000000   0.0000000   0.0000000   0.0000000   0.0000000   0.0000000
 NMagM=    0.0000000   0.0000000   0.0000000   0.0000000   0.0000000   0.0000000   0.0000000   0.0000000   0.0000000   0.0000000
 AtZNuc=   6.0000000   6.0000000   6.0000000   6.0000000   6.0000000   6.0000000   6.0000000   6.0000000   6.0000000   6.0000000

  Atom        21          22          23          24          25          26          27          28          29          30
 IAtWgt=          12          12          12          12          12          12          12          12          12          12
 AtmWgt=  12.0000000  12.0000000  12.0000000  12.0000000  12.0000000  12.0000000  12.0000000  12.0000000  12.0000000  12.0000000
 NucSpn=           0           0           0           0           0           0           0           0           0           0
 AtZEff=  -0.0000000  -0.0000000  -0.0000000  -0.0000000  -0.0000000  -0.0000000  -0.0000000  -0.0000000  -0.0000000  -0.0000000
 NQMom=    0.0000000   0.0000000   0.0000000   0.0000000   0.0000000   0.0000000   0.0000000   0.0000000   0.0000000   0.0000000
 NMagM=    0.0000000   0.0000000   0.0000000   0.0000000   0.0000000   0.0000000   0.0000000   0.0000000   0.0000000   0.0000000
 AtZNuc=   6.0000000   6.0000000   6.0000000   6.0000000   6.0000000   6.0000000   6.0000000   6.0000000   6.0000000   6.0000000

  Atom        31          32          33          34          35          36          37          38          39          40
 IAtWgt=          12          12          12          12          12           1           1           1           1           1
 AtmWgt=  12.0000000  12.0000000  12.0000000  12.0000000  12.0000000   1.0078250   1.0078250   1.0078250   1.0078250   1.0078250
 NucSpn=           0           0           0           0           0           1           1           1           1           1
 AtZEff=  -0.0000000  -0.0000000  -0.0000000  -0.0000000  -0.0000000  -0.0000000  -0.0000000  -0.0000000  -0.0000000  -0.0000000
 NQMom=    0.0000000   0.0000000   0.0000000   0.0000000   0.0000000   0.0000000   0.0000000   0.0000000   0.0000000   0.0000000
 NMagM=    0.0000000   0.0000000   0.0000000   0.0000000   0.0000000   2.7928460   2.7928460   2.7928460   2.7928460   2.7928460
 AtZNuc=   6.0000000   6.0000000   6.0000000   6.0000000   6.0000000   1.0000000   1.0000000   1.0000000   1.0000000   1.0000000

  Atom        41          42          43          44          45          46          47          48          49          50
 IAtWgt=           1           1           1           1           1           1           1           1           1           1
 AtmWgt=   1.0078250   1.0078250   1.0078250   1.0078250   1.0078250   1.0078250   1.0078250   1.0078250   1.0078250   1.0078250
 NucSpn=           1           1           1           1           1           1           1           1           1           1
 AtZEff=  -0.0000000  -0.0000000  -0.0000000  -0.0000000  -0.0000000  -0.0000000  -0.0000000  -0.0000000  -0.0000000  -0.0000000
 NQMom=    0.0000000   0.0000000   0.0000000   0.0000000   0.0000000   0.0000000   0.0000000   0.0000000   0.0000000   0.0000000
 NMagM=    2.7928460   2.7928460   2.7928460   2.7928460   2.7928460   2.7928460   2.7928460   2.7928460   2.7928460   2.7928460
 AtZNuc=   1.0000000   1.0000000   1.0000000   1.0000000   1.0000000   1.0000000   1.0000000   1.0000000   1.0000000   1.0000000

  Atom        51          52          53          54          55          56
 IAtWgt=           1           1           1           1           1           1
 AtmWgt=   1.0078250   1.0078250   1.0078250   1.0078250   1.0078250   1.0078250
 NucSpn=           1           1           1           1           1           1
 AtZEff=  -0.0000000  -0.0000000  -0.0000000  -0.0000000  -0.0000000  -0.0000000
 NQMom=    0.0000000   0.0000000   0.0000000   0.0000000   0.0000000   0.0000000
 NMagM=    2.7928460   2.7928460   2.7928460   2.7928460   2.7928460   2.7928460
 AtZNuc=   1.0000000   1.0000000   1.0000000   1.0000000   1.0000000   1.0000000
 Leave Link  101 at Wed Dec  6 20:23:20 2023, MaxMem=  2147483648 cpu:              15.9 elap:               0.7
 (Enter /opt/gaussian/g16-c01/g16/l103.exe)

 GradGradGradGradGradGradGradGradGradGradGradGradGradGradGradGradGradGrad
 Berny optimization.
 Initialization pass.
                           ----------------------------
                           !    Initial Parameters    !
                           ! (Angstroms and Degrees)  !
 --------------------------                            --------------------------
 ! Name  Definition              Value          Derivative Info.                !
 --------------------------------------------------------------------------------
 ! R1    R(1,20)                 1.7124         estimate D2E/DX2                !
 ! R2    R(1,24)                 1.7125         estimate D2E/DX2                !
 ! R3    R(2,21)                 1.7123         estimate D2E/DX2                !
 ! R4    R(2,25)                 1.7124         estimate D2E/DX2                !
 ! R5    R(3,28)                 1.7125         estimate D2E/DX2                !
 ! R6    R(3,34)                 1.7123         estimate D2E/DX2                !
 ! R7    R(4,29)                 1.7124         estimate D2E/DX2                !
 ! R8    R(4,35)                 1.7124         estimate D2E/DX2                !
 ! R9    R(5,8)                  1.3749         estimate D2E/DX2                !
 ! R10   R(5,9)                  1.3749         estimate D2E/DX2                !
 ! R11   R(5,10)                 1.4494         estimate D2E/DX2                !
 ! R12   R(6,7)                  1.4311         estimate D2E/DX2                !
 ! R13   R(6,8)                  1.395          estimate D2E/DX2                !
 ! R14   R(6,11)                 1.4109         estimate D2E/DX2                !
 ! R15   R(7,9)                  1.395          estimate D2E/DX2                !
 ! R16   R(7,12)                 1.4108         estimate D2E/DX2                !
 ! R17   R(8,13)                 1.3997         estimate D2E/DX2                !
 ! R18   R(9,14)                 1.3996         estimate D2E/DX2                !
 ! R19   R(10,19)                1.521          estimate D2E/DX2                !
 ! R20   R(10,36)                1.096          estimate D2E/DX2                !
 ! R21   R(10,37)                1.0933         estimate D2E/DX2                !
 ! R22   R(11,15)                1.3994         estimate D2E/DX2                !
 ! R23   R(11,38)                1.0872         estimate D2E/DX2                !
 ! R24   R(12,16)                1.3995         estimate D2E/DX2                !
 ! R25   R(12,39)                1.0872         estimate D2E/DX2                !
 ! R26   R(13,17)                1.3974         estimate D2E/DX2                !
 ! R27   R(13,40)                1.0847         estimate D2E/DX2                !
 ! R28   R(14,18)                1.3974         estimate D2E/DX2                !
 ! R29   R(14,41)                1.0844         estimate D2E/DX2                !
 ! R30   R(15,17)                1.3927         estimate D2E/DX2                !
 ! R31   R(15,20)                1.4433         estimate D2E/DX2                !
 ! R32   R(16,18)                1.3928         estimate D2E/DX2                !
 ! R33   R(16,21)                1.4431         estimate D2E/DX2                !
 ! R34   R(17,42)                1.0885         estimate D2E/DX2                !
 ! R35   R(18,43)                1.0885         estimate D2E/DX2                !
 ! R36   R(19,44)                1.0953         estimate D2E/DX2                !
 ! R37   R(19,45)                1.0945         estimate D2E/DX2                !
 ! R38   R(19,46)                1.0942         estimate D2E/DX2                !
 ! R39   R(20,22)                1.3775         estimate D2E/DX2                !
 ! R40   R(21,23)                1.3775         estimate D2E/DX2                !
 ! R41   R(22,26)                1.4247         estimate D2E/DX2                !
 ! R42   R(22,47)                1.083          estimate D2E/DX2                !
 ! R43   R(23,27)                1.4248         estimate D2E/DX2                !
 ! R44   R(23,48)                1.083          estimate D2E/DX2                !
 ! R45   R(24,26)                1.3775         estimate D2E/DX2                !
 ! R46   R(24,28)                1.4188         estimate D2E/DX2                !
 ! R47   R(25,27)                1.3776         estimate D2E/DX2                !
 ! R48   R(25,29)                1.419          estimate D2E/DX2                !
 ! R49   R(26,49)                1.0831         estimate D2E/DX2                !
 ! R50   R(27,50)                1.083          estimate D2E/DX2                !
 ! R51   R(28,30)                1.3776         estimate D2E/DX2                !
 ! R52   R(29,31)                1.3774         estimate D2E/DX2                !
 ! R53   R(30,32)                1.4249         estimate D2E/DX2                !
 ! R54   R(30,51)                1.0831         estimate D2E/DX2                !
 ! R55   R(31,33)                1.4248         estimate D2E/DX2                !
 ! R56   R(31,52)                1.0831         estimate D2E/DX2                !
 ! R57   R(32,34)                1.3775         estimate D2E/DX2                !
 ! R58   R(32,53)                1.0822         estimate D2E/DX2                !
 ! R59   R(33,35)                1.3775         estimate D2E/DX2                !
 ! R60   R(33,54)                1.0822         estimate D2E/DX2                !
 ! R61   R(34,55)                1.0808         estimate D2E/DX2                !
 ! R62   R(35,56)                1.0809         estimate D2E/DX2                !
 ! A1    A(20,1,24)             91.8003         estimate D2E/DX2                !
 ! A2    A(21,2,25)             91.8056         estimate D2E/DX2                !
 ! A3    A(28,3,34)             91.8059         estimate D2E/DX2                !
 ! A4    A(29,4,35)             91.7991         estimate D2E/DX2                !
 ! A5    A(8,5,9)              110.8266         estimate D2E/DX2                !
 ! A6    A(8,5,10)             124.5839         estimate D2E/DX2                !
 ! A7    A(9,5,10)             124.5895         estimate D2E/DX2                !
 ! A8    A(7,6,8)              107.3642         estimate D2E/DX2                !
 ! A9    A(7,6,11)             134.0766         estimate D2E/DX2                !
 ! A10   A(8,6,11)             118.5592         estimate D2E/DX2                !
 ! A11   A(6,7,9)              107.3662         estimate D2E/DX2                !
 ! A12   A(6,7,12)             134.0724         estimate D2E/DX2                !
 ! A13   A(9,7,12)             118.5614         estimate D2E/DX2                !
 ! A14   A(5,8,6)              107.2232         estimate D2E/DX2                !
 ! A15   A(5,8,13)             130.0328         estimate D2E/DX2                !
 ! A16   A(6,8,13)             122.7439         estimate D2E/DX2                !
 ! A17   A(5,9,7)              107.2198         estimate D2E/DX2                !
 ! A18   A(5,9,14)             130.0362         estimate D2E/DX2                !
 ! A19   A(7,9,14)             122.7441         estimate D2E/DX2                !
 ! A20   A(5,10,19)            111.854          estimate D2E/DX2                !
 ! A21   A(5,10,36)            107.6564         estimate D2E/DX2                !
 ! A22   A(5,10,37)            109.6341         estimate D2E/DX2                !
 ! A23   A(19,10,36)           110.4908         estimate D2E/DX2                !
 ! A24   A(19,10,37)           110.5431         estimate D2E/DX2                !
 ! A25   A(36,10,37)           106.4795         estimate D2E/DX2                !
 ! A26   A(6,11,15)            119.3531         estimate D2E/DX2                !
 ! A27   A(6,11,38)            119.3406         estimate D2E/DX2                !
 ! A28   A(15,11,38)           121.3032         estimate D2E/DX2                !
 ! A29   A(7,12,16)            119.358          estimate D2E/DX2                !
 ! A30   A(7,12,39)            119.3447         estimate D2E/DX2                !
 ! A31   A(16,12,39)           121.2943         estimate D2E/DX2                !
 ! A32   A(8,13,17)            117.6238         estimate D2E/DX2                !
 ! A33   A(8,13,40)            122.0439         estimate D2E/DX2                !
 ! A34   A(17,13,40)           120.3321         estimate D2E/DX2                !
 ! A35   A(9,14,18)            117.6277         estimate D2E/DX2                !
 ! A36   A(9,14,41)            122.3443         estimate D2E/DX2                !
 ! A37   A(18,14,41)           120.0267         estimate D2E/DX2                !
 ! A38   A(11,15,17)           120.7332         estimate D2E/DX2                !
 ! A39   A(11,15,20)           119.5373         estimate D2E/DX2                !
 ! A40   A(17,15,20)           119.7295         estimate D2E/DX2                !
 ! A41   A(12,16,18)           120.7237         estimate D2E/DX2                !
 ! A42   A(12,16,21)           119.5351         estimate D2E/DX2                !
 ! A43   A(18,16,21)           119.7412         estimate D2E/DX2                !
 ! A44   A(13,17,15)           120.9869         estimate D2E/DX2                !
 ! A45   A(13,17,42)           118.3212         estimate D2E/DX2                !
 ! A46   A(15,17,42)           120.6918         estimate D2E/DX2                !
 ! A47   A(14,18,16)           120.9852         estimate D2E/DX2                !
 ! A48   A(14,18,43)           118.3318         estimate D2E/DX2                !
 ! A49   A(16,18,43)           120.6825         estimate D2E/DX2                !
 ! A50   A(10,19,44)           110.9072         estimate D2E/DX2                !
 ! A51   A(10,19,45)           110.101          estimate D2E/DX2                !
 ! A52   A(10,19,46)           112.0217         estimate D2E/DX2                !
 ! A53   A(44,19,45)           108.0844         estimate D2E/DX2                !
 ! A54   A(44,19,46)           107.6826         estimate D2E/DX2                !
 ! A55   A(45,19,46)           107.9002         estimate D2E/DX2                !
 ! A56   A(1,20,15)            118.9122         estimate D2E/DX2                !
 ! A57   A(1,20,22)            112.0406         estimate D2E/DX2                !
 ! A58   A(15,20,22)           129.0473         estimate D2E/DX2                !
 ! A59   A(2,21,16)            118.9148         estimate D2E/DX2                !
 ! A60   A(2,21,23)            112.0383         estimate D2E/DX2                !
 ! A61   A(16,21,23)           129.0469         estimate D2E/DX2                !
 ! A62   A(20,22,26)           112.0614         estimate D2E/DX2                !
 ! A63   A(20,22,47)           123.857          estimate D2E/DX2                !
 ! A64   A(26,22,47)           124.0812         estimate D2E/DX2                !
 ! A65   A(21,23,27)           112.0645         estimate D2E/DX2                !
 ! A66   A(21,23,48)           123.854          estimate D2E/DX2                !
 ! A67   A(27,23,48)           124.0811         estimate D2E/DX2                !
 ! A68   A(1,24,26)            112.0374         estimate D2E/DX2                !
 ! A69   A(1,24,28)            120.708          estimate D2E/DX2                !
 ! A70   A(26,24,28)           127.2545         estimate D2E/DX2                !
 ! A71   A(2,25,27)            112.0376         estimate D2E/DX2                !
 ! A72   A(2,25,29)            120.7154         estimate D2E/DX2                !
 ! A73   A(27,25,29)           127.247          estimate D2E/DX2                !
 ! A74   A(22,26,24)           112.0603         estimate D2E/DX2                !
 ! A75   A(22,26,49)           123.2135         estimate D2E/DX2                !
 ! A76   A(24,26,49)           124.724          estimate D2E/DX2                !
 ! A77   A(23,27,25)           112.054          estimate D2E/DX2                !
 ! A78   A(23,27,50)           123.2118         estimate D2E/DX2                !
 ! A79   A(25,27,50)           124.7318         estimate D2E/DX2                !
 ! A80   A(3,28,24)            120.7155         estimate D2E/DX2                !
 ! A81   A(3,28,30)            112.0378         estimate D2E/DX2                !
 ! A82   A(24,28,30)           127.2467         estimate D2E/DX2                !
 ! A83   A(4,29,25)            120.7119         estimate D2E/DX2                !
 ! A84   A(4,29,31)            112.0478         estimate D2E/DX2                !
 ! A85   A(25,29,31)           127.2404         estimate D2E/DX2                !
 ! A86   A(28,30,32)           112.0498         estimate D2E/DX2                !
 ! A87   A(28,30,51)           124.7288         estimate D2E/DX2                !
 ! A88   A(32,30,51)           123.2192         estimate D2E/DX2                !
 ! A89   A(29,31,33)           112.0523         estimate D2E/DX2                !
 ! A90   A(29,31,52)           124.7304         estimate D2E/DX2                !
 ! A91   A(33,31,52)           123.2151         estimate D2E/DX2                !
 ! A92   A(30,32,34)           112.0679         estimate D2E/DX2                !
 ! A93   A(30,32,53)           124.5778         estimate D2E/DX2                !
 ! A94   A(34,32,53)           123.3541         estimate D2E/DX2                !
 ! A95   A(31,33,35)           112.0612         estimate D2E/DX2                !
 ! A96   A(31,33,54)           124.5808         estimate D2E/DX2                !
 ! A97   A(35,33,54)           123.3578         estimate D2E/DX2                !
 ! A98   A(3,34,32)            112.0386         estimate D2E/DX2                !
 ! A99   A(3,34,55)            120.3392         estimate D2E/DX2                !
 ! A100  A(32,34,55)           127.6222         estimate D2E/DX2                !
 ! A101  A(4,35,33)            112.0396         estimate D2E/DX2                !
 ! A102  A(4,35,56)            120.3431         estimate D2E/DX2                !
 ! A103  A(33,35,56)           127.6173         estimate D2E/DX2                !
 ! D1    D(24,1,20,15)        -179.9964         estimate D2E/DX2                !
 ! D2    D(24,1,20,22)           0.0034         estimate D2E/DX2                !
 ! D3    D(20,1,24,26)          -0.0107         estimate D2E/DX2                !
 ! D4    D(20,1,24,28)         179.9889         estimate D2E/DX2                !
 ! D5    D(25,2,21,16)        -179.9983         estimate D2E/DX2                !
 ! D6    D(25,2,21,23)           0.0095         estimate D2E/DX2                !
 ! D7    D(21,2,25,27)          -0.0092         estimate D2E/DX2                !
 ! D8    D(21,2,25,29)         179.9947         estimate D2E/DX2                !
 ! D9    D(34,3,28,24)         179.999          estimate D2E/DX2                !
 ! D10   D(34,3,28,30)          -0.0108         estimate D2E/DX2                !
 ! D11   D(28,3,34,32)           0.0101         estimate D2E/DX2                !
 ! D12   D(28,3,34,55)         179.9733         estimate D2E/DX2                !
 ! D13   D(35,4,29,25)         179.9958         estimate D2E/DX2                !
 ! D14   D(35,4,29,31)          -0.0053         estimate D2E/DX2                !
 ! D15   D(29,4,35,33)           0.0064         estimate D2E/DX2                !
 ! D16   D(29,4,35,56)        -179.9657         estimate D2E/DX2                !
 ! D17   D(9,5,8,6)             -0.0001         estimate D2E/DX2                !
 ! D18   D(9,5,8,13)          -179.9981         estimate D2E/DX2                !
 ! D19   D(10,5,8,6)          -179.9952         estimate D2E/DX2                !
 ! D20   D(10,5,8,13)            0.0069         estimate D2E/DX2                !
 ! D21   D(8,5,9,7)             -0.0012         estimate D2E/DX2                !
 ! D22   D(8,5,9,14)          -179.997          estimate D2E/DX2                !
 ! D23   D(10,5,9,7)           179.9939         estimate D2E/DX2                !
 ! D24   D(10,5,9,14)           -0.0019         estimate D2E/DX2                !
 ! D25   D(8,5,10,19)          -76.9937         estimate D2E/DX2                !
 ! D26   D(8,5,10,36)           44.5715         estimate D2E/DX2                !
 ! D27   D(8,5,10,37)          160.0155         estimate D2E/DX2                !
 ! D28   D(9,5,10,19)          103.0119         estimate D2E/DX2                !
 ! D29   D(9,5,10,36)         -135.4229         estimate D2E/DX2                !
 ! D30   D(9,5,10,37)          -19.9789         estimate D2E/DX2                !
 ! D31   D(8,6,7,9)             -0.0021         estimate D2E/DX2                !
 ! D32   D(8,6,7,12)           179.9914         estimate D2E/DX2                !
 ! D33   D(11,6,7,9)          -179.9983         estimate D2E/DX2                !
 ! D34   D(11,6,7,12)           -0.0049         estimate D2E/DX2                !
 ! D35   D(7,6,8,5)              0.0013         estimate D2E/DX2                !
 ! D36   D(7,6,8,13)           179.9995         estimate D2E/DX2                !
 ! D37   D(11,6,8,5)           179.9983         estimate D2E/DX2                !
 ! D38   D(11,6,8,13)           -0.0036         estimate D2E/DX2                !
 ! D39   D(7,6,11,15)          179.9998         estimate D2E/DX2                !
 ! D40   D(7,6,11,38)            0.636          estimate D2E/DX2                !
 ! D41   D(8,6,11,15)            0.0038         estimate D2E/DX2                !
 ! D42   D(8,6,11,38)         -179.3599         estimate D2E/DX2                !
 ! D43   D(6,7,9,5)              0.002          estimate D2E/DX2                !
 ! D44   D(6,7,9,14)           179.9982         estimate D2E/DX2                !
 ! D45   D(12,7,9,5)          -179.9927         estimate D2E/DX2                !
 ! D46   D(12,7,9,14)            0.0035         estimate D2E/DX2                !
 ! D47   D(6,7,12,16)          179.9977         estimate D2E/DX2                !
 ! D48   D(6,7,12,39)           -0.6266         estimate D2E/DX2                !
 ! D49   D(9,7,12,16)           -0.0094         estimate D2E/DX2                !
 ! D50   D(9,7,12,39)          179.3663         estimate D2E/DX2                !
 ! D51   D(5,8,13,17)         -179.9986         estimate D2E/DX2                !
 ! D52   D(5,8,13,40)           -0.1722         estimate D2E/DX2                !
 ! D53   D(6,8,13,17)            0.0037         estimate D2E/DX2                !
 ! D54   D(6,8,13,40)          179.8301         estimate D2E/DX2                !
 ! D55   D(5,9,14,18)          179.9989         estimate D2E/DX2                !
 ! D56   D(5,9,14,41)           -0.4073         estimate D2E/DX2                !
 ! D57   D(7,9,14,18)            0.0036         estimate D2E/DX2                !
 ! D58   D(7,9,14,41)          179.5974         estimate D2E/DX2                !
 ! D59   D(5,10,19,44)         -59.9484         estimate D2E/DX2                !
 ! D60   D(5,10,19,45)        -179.5294         estimate D2E/DX2                !
 ! D61   D(5,10,19,46)          60.3995         estimate D2E/DX2                !
 ! D62   D(36,10,19,44)       -179.8655         estimate D2E/DX2                !
 ! D63   D(36,10,19,45)         60.5536         estimate D2E/DX2                !
 ! D64   D(36,10,19,46)        -59.5176         estimate D2E/DX2                !
 ! D65   D(37,10,19,44)         62.5252         estimate D2E/DX2                !
 ! D66   D(37,10,19,45)        -57.0558         estimate D2E/DX2                !
 ! D67   D(37,10,19,46)       -177.1269         estimate D2E/DX2                !
 ! D68   D(6,11,15,17)          -0.0045         estimate D2E/DX2                !
 ! D69   D(6,11,15,20)         179.9993         estimate D2E/DX2                !
 ! D70   D(38,11,15,17)        179.3464         estimate D2E/DX2                !
 ! D71   D(38,11,15,20)         -0.6499         estimate D2E/DX2                !
 ! D72   D(7,12,16,18)           0.0084         estimate D2E/DX2                !
 ! D73   D(7,12,16,21)        -179.9867         estimate D2E/DX2                !
 ! D74   D(39,12,16,18)       -179.3548         estimate D2E/DX2                !
 ! D75   D(39,12,16,21)          0.6502         estimate D2E/DX2                !
 ! D76   D(8,13,17,15)          -0.0042         estimate D2E/DX2                !
 ! D77   D(8,13,17,42)        -179.8656         estimate D2E/DX2                !
 ! D78   D(40,13,17,15)       -179.8338         estimate D2E/DX2                !
 ! D79   D(40,13,17,42)          0.3048         estimate D2E/DX2                !
 ! D80   D(9,14,18,16)          -0.0048         estimate D2E/DX2                !
 ! D81   D(9,14,18,43)         179.74           estimate D2E/DX2                !
 ! D82   D(41,14,18,16)       -179.6085         estimate D2E/DX2                !
 ! D83   D(41,14,18,43)          0.1364         estimate D2E/DX2                !
 ! D84   D(11,15,17,13)          0.0047         estimate D2E/DX2                !
 ! D85   D(11,15,17,42)        179.8628         estimate D2E/DX2                !
 ! D86   D(20,15,17,13)       -179.999          estimate D2E/DX2                !
 ! D87   D(20,15,17,42)         -0.1409         estimate D2E/DX2                !
 ! D88   D(11,15,20,1)         -59.9978         estimate D2E/DX2                !
 ! D89   D(11,15,20,22)        120.0024         estimate D2E/DX2                !
 ! D90   D(17,15,20,1)         120.0059         estimate D2E/DX2                !
 ! D91   D(17,15,20,22)        -59.9938         estimate D2E/DX2                !
 ! D92   D(12,16,18,14)         -0.0011         estimate D2E/DX2                !
 ! D93   D(12,16,18,43)       -179.74           estimate D2E/DX2                !
 ! D94   D(21,16,18,14)        179.9939         estimate D2E/DX2                !
 ! D95   D(21,16,18,43)          0.2551         estimate D2E/DX2                !
 ! D96   D(12,16,21,2)          60.001          estimate D2E/DX2                !
 ! D97   D(12,16,21,23)       -120.0083         estimate D2E/DX2                !
 ! D98   D(18,16,21,2)        -119.9941         estimate D2E/DX2                !
 ! D99   D(18,16,21,23)         59.9966         estimate D2E/DX2                !
 ! D100  D(1,20,22,26)           0.0045         estimate D2E/DX2                !
 ! D101  D(1,20,22,47)         179.7877         estimate D2E/DX2                !
 ! D102  D(15,20,22,26)       -179.9957         estimate D2E/DX2                !
 ! D103  D(15,20,22,47)         -0.2125         estimate D2E/DX2                !
 ! D104  D(2,21,23,27)          -0.0074         estimate D2E/DX2                !
 ! D105  D(2,21,23,48)        -179.7976         estimate D2E/DX2                !
 ! D106  D(16,21,23,27)       -179.9986         estimate D2E/DX2                !
 ! D107  D(16,21,23,48)          0.2112         estimate D2E/DX2                !
 ! D108  D(20,22,26,24)         -0.0126         estimate D2E/DX2                !
 ! D109  D(20,22,26,49)        179.4613         estimate D2E/DX2                !
 ! D110  D(47,22,26,24)       -179.7953         estimate D2E/DX2                !
 ! D111  D(47,22,26,49)         -0.3214         estimate D2E/DX2                !
 ! D112  D(21,23,27,25)          0.0005         estimate D2E/DX2                !
 ! D113  D(21,23,27,50)       -179.4538         estimate D2E/DX2                !
 ! D114  D(48,23,27,25)        179.7902         estimate D2E/DX2                !
 ! D115  D(48,23,27,50)          0.3359         estimate D2E/DX2                !
 ! D116  D(1,24,26,22)           0.0151         estimate D2E/DX2                !
 ! D117  D(1,24,26,49)        -179.4494         estimate D2E/DX2                !
 ! D118  D(28,24,26,22)       -179.9845         estimate D2E/DX2                !
 ! D119  D(28,24,26,49)          0.5511         estimate D2E/DX2                !
 ! D120  D(1,24,28,3)         -150.0123         estimate D2E/DX2                !
 ! D121  D(1,24,28,30)          29.9991         estimate D2E/DX2                !
 ! D122  D(26,24,28,3)          29.9873         estimate D2E/DX2                !
 ! D123  D(26,24,28,30)       -150.0014         estimate D2E/DX2                !
 ! D124  D(2,25,27,23)           0.0066         estimate D2E/DX2                !
 ! D125  D(2,25,27,50)         179.4511         estimate D2E/DX2                !
 ! D126  D(29,25,27,23)       -179.9975         estimate D2E/DX2                !
 ! D127  D(29,25,27,50)         -0.5531         estimate D2E/DX2                !
 ! D128  D(2,25,29,4)          149.9885         estimate D2E/DX2                !
 ! D129  D(2,25,29,31)         -30.0102         estimate D2E/DX2                !
 ! D130  D(27,25,29,4)         -30.007          estimate D2E/DX2                !
 ! D131  D(27,25,29,31)        149.9943         estimate D2E/DX2                !
 ! D132  D(3,28,30,32)           0.0088         estimate D2E/DX2                !
 ! D133  D(3,28,30,51)        -179.4618         estimate D2E/DX2                !
 ! D134  D(24,28,30,32)        179.9983         estimate D2E/DX2                !
 ! D135  D(24,28,30,51)          0.5277         estimate D2E/DX2                !
 ! D136  D(4,29,31,33)           0.003          estimate D2E/DX2                !
 ! D137  D(4,29,31,52)         179.4753         estimate D2E/DX2                !
 ! D138  D(25,29,31,33)       -179.9983         estimate D2E/DX2                !
 ! D139  D(25,29,31,52)         -0.5259         estimate D2E/DX2                !
 ! D140  D(28,30,32,34)         -0.0013         estimate D2E/DX2                !
 ! D141  D(28,30,32,53)       -179.8686         estimate D2E/DX2                !
 ! D142  D(51,30,32,34)        179.4786         estimate D2E/DX2                !
 ! D143  D(51,30,32,53)         -0.3887         estimate D2E/DX2                !
 ! D144  D(29,31,33,35)          0.0019         estimate D2E/DX2                !
 ! D145  D(29,31,33,54)        179.8678         estimate D2E/DX2                !
 ! D146  D(52,31,33,35)       -179.4798         estimate D2E/DX2                !
 ! D147  D(52,31,33,54)          0.3861         estimate D2E/DX2                !
 ! D148  D(30,32,34,3)          -0.0068         estimate D2E/DX2                !
 ! D149  D(30,32,34,55)       -179.9667         estimate D2E/DX2                !
 ! D150  D(53,32,34,3)         179.8624         estimate D2E/DX2                !
 ! D151  D(53,32,34,55)         -0.0975         estimate D2E/DX2                !
 ! D152  D(31,33,35,4)          -0.0059         estimate D2E/DX2                !
 ! D153  D(31,33,35,56)        179.9637         estimate D2E/DX2                !
 ! D154  D(54,33,35,4)        -179.8737         estimate D2E/DX2                !
 ! D155  D(54,33,35,56)          0.096          estimate D2E/DX2                !
 --------------------------------------------------------------------------------
 Trust Radius=3.00D-01 FncErr=1.00D-07 GrdErr=1.00D-06 EigMax=2.50D+02 EigMin=1.00D-04
 Number of steps in this run=    330 maximum allowed number of steps=    336.
 GradGradGradGradGradGradGradGradGradGradGradGradGradGradGradGradGradGrad

 Leave Link  103 at Wed Dec  6 20:23:21 2023, MaxMem=  2147483648 cpu:               1.0 elap:               0.1
 (Enter /opt/gaussian/g16-c01/g16/l202.exe)
 Stoichiometry    C30H21NS4
 Framework group  C1[X(C30H21NS4)]
 Deg. of freedom   162
 Full point group                 C1      NOp   1
 Largest Abelian subgroup         C1      NOp   1
 Largest concise Abelian subgroup C1      NOp   1
                         Standard orientation:                         
 ---------------------------------------------------------------------
 Center     Atomic      Atomic             Coordinates (Angstroms)
 Number     Number       Type             X           Y           Z
 ---------------------------------------------------------------------
      1         16           0       -4.085087   -0.734087   -0.473105
      2         16           0        4.111909   -0.696772   -0.480991
      3         16           0       -7.652142   -2.961446    0.191326
      4         16           0        7.699751   -2.892519    0.176368
      5          7           0       -0.009331    4.366731   -0.235235
      6          6           0       -0.715014    2.298189    0.206595
      7          6           0        0.716085    2.304731    0.205263
      8          6           0       -1.137550    3.598329   -0.071128
      9          6           0        1.126249    3.608654   -0.073279
     10          6           0       -0.016179    5.784167   -0.537901
     11          6           0       -1.691710    1.302497    0.419294
     12          6           0        1.702088    1.318033    0.416218
     13          6           0       -2.488888    3.955199   -0.147426
     14          6           0        2.474010    3.977791   -0.152039
     15          6           0       -3.046846    1.644133    0.346241
     16          6           0        3.054051    1.671837    0.340603
     17          6           0       -3.437183    2.951492    0.066989
     18          6           0        3.431914    2.982773    0.060533
     19          6           0       -0.336602    6.049163   -2.000971
     20          6           0       -4.049340    0.628696    0.563142
     21          6           0        4.065856    0.665501    0.555457
     22          6           0       -5.036970    0.575099    1.521916
     23          6           0        5.055825    0.620701    1.512284
     24          6           0       -5.424671   -1.400176    0.360187
     25          6           0        5.458824   -1.351095    0.349735
     26          6           0       -5.833572   -0.600244    1.404466
     27          6           0        5.862822   -0.547482    1.393196
     28          6           0       -5.987087   -2.638292   -0.044629
     29          6           0        6.031408   -2.584400   -0.056010
     30          6           0       -5.335532   -3.693820   -0.643990
     31          6           0        5.387963   -3.645561   -0.653739
     32          6           0       -6.215053   -4.782030   -0.913160
     33          6           0        6.276342   -4.726095   -0.924552
     34          6           0       -7.505049   -4.516919   -0.509367
     35          6           0        7.564844   -4.449527   -0.523421
     36          1           0       -0.761678    6.258864    0.110189
     37          1           0        0.949800    6.221378   -0.271427
     38          1           0       -1.376603    0.287168    0.647005
     39          1           0        1.396695    0.299843    0.644443
     40          1           0       -2.804794    4.970591   -0.361536
     41          1           0        2.785604    4.992131   -0.375303
     42          1           0       -4.491410    3.216007    0.008136
     43          1           0        4.483585    3.256317   -0.002273
     44          1           0        0.403297    5.575527   -2.655150
     45          1           0       -0.326012    7.125428   -2.199386
     46          1           0       -1.322186    5.665192   -2.281205
     47          1           0       -5.186187    1.336374    2.277672
     48          1           0        5.199708    1.383305    2.267733
     49          1           0       -6.655606   -0.828882    2.071542
     50          1           0        6.688088   -0.768757    2.058734
     51          1           0       -4.278747   -3.712533   -0.880464
     52          1           0        4.330849   -3.673585   -0.888062
     53          1           0       -5.916300   -5.712851   -1.377427
     54          1           0        5.984794   -5.659577   -1.388006
     55          1           0       -8.367997   -5.162395   -0.591746
     56          1           0        8.433296   -5.087531   -0.607443
 ---------------------------------------------------------------------
 Rotational constants (GHZ):           0.0992437           0.0396919           0.0292412
 Leave Link  202 at Wed Dec  6 20:23:21 2023, MaxMem=  2147483648 cpu:               1.9 elap:               0.1
 (Enter /opt/gaussian/g16-c01/g16/l301.exe)
 Standard basis: 6-311++G(d,p) (5D, 7F)
 Ernie: Thresh=  0.10000D-02 Tol=  0.10000D-05 Strict=F.
 There are   984 symmetry adapted cartesian basis functions of A   symmetry.
 There are   949 symmetry adapted basis functions of A   symmetry.
   949 basis functions,  1505 primitive gaussians,   984 cartesian basis functions
   136 alpha electrons      136 beta electrons
       nuclear repulsion energy      3778.0844107467 Hartrees.
 IExCor= 7252 DFT=T Ex+Corr=MN15 ExCW=0 ScaHFX=  0.440000
 ScaDFX=  1.000000  1.000000  1.000000  1.000000 ScalE2=  1.000000  1.000000
 IRadAn=      5 IRanWt=     -1 IRanGd=            0 ICorTp=0 IEmpDi=  4
 NAtoms=   56 NActive=   56 NUniq=   56 SFac= 1.00D+00 NAtFMM=   60 NAOKFM=F Big=F
 Integral buffers will be    131072 words long.
 Raffenetti 2 integral format.
 Two-electron integral symmetry is turned on.
 Leave Link  301 at Wed Dec  6 20:23:21 2023, MaxMem=  2147483648 cpu:               2.0 elap:               0.1
 (Enter /opt/gaussian/g16-c01/g16/l302.exe)
 NPDir=0 NMtPBC=     1 NCelOv=     1 NCel=       1 NClECP=     1 NCelD=      1
         NCelK=      1 NCelE2=     1 NClLst=     1 CellRange=     0.0.
 One-electron integrals computed using PRISM.
 One-electron integral symmetry used in STVInt
 NBasis=   949 RedAO= T EigKep=  1.61D-06  NBF=   949
 NBsUse=   935 1.00D-06 EigRej=  8.68D-07 NBFU=   935
 Precomputing XC quadrature grid using
 IXCGrd= 4 IRadAn=           5 IRanWt=          -1 IRanGd=           0 AccXCQ= 0.00D+00.
 Generated NRdTot=       0 NPtTot=           0 NUsed=           0 NTot=          32
 NSgBfM=   909   909   909   909   909 MxSgAt=    56 MxSgA2=    56.
 Leave Link  302 at Wed Dec  6 20:23:33 2023, MaxMem=  2147483648 cpu:             297.6 elap:              11.9
 (Enter /opt/gaussian/g16-c01/g16/l303.exe)
 DipDrv:  MaxL=1.
 Leave Link  303 at Wed Dec  6 20:23:48 2023, MaxMem=  2147483648 cpu:             367.2 elap:              14.9
 (Enter /opt/gaussian/g16-c01/g16/l401.exe)
 ExpMin= 3.60D-02 ExpMax= 9.34D+04 ExpMxC= 3.17D+03 IAcc=3 IRadAn=         5 AccDes= 0.00D+00
 Harris functional with IExCor= 1009 and IRadAn=       5 diagonalized for initial guess.
 HarFok:  IExCor= 1009 AccDes= 0.00D+00 IRadAn=         5 IDoV= 1 UseB2=F ITyADJ=14
 ICtDFT=  3500011 ScaDFX=  1.000000  1.000000  1.000000  1.000000
 FoFCou: FMM=F IPFlag=           0 FMFlag=      100000 FMFlg1=           0
         NFxFlg=           0 DoJE=T BraDBF=F KetDBF=T FulRan=T
         wScrn=  0.000000 ICntrl=       500 IOpCl=  0 I1Cent=   200000004 NGrid=           0
         NMat0=    1 NMatS0=      1 NMatT0=    0 NMatD0=    1 NMtDS0=    0 NMtDT0=    0
 Petite list used in FoFCou.
 Harris En= -2801.86921198090    
 JPrj=0 DoOrth=F DoCkMO=F.
 Leave Link  401 at Wed Dec  6 20:24:38 2023, MaxMem=  2147483648 cpu:            1244.6 elap:              50.5
 (Enter /opt/gaussian/g16-c01/g16/l502.exe)
 Integral symmetry usage will be decided dynamically.
 Closed shell SCF:
 Using DIIS extrapolation, IDIIS=  1040.
 NGot=  2147483648 LenX=  2145511166 LenY=  2144541926
 Requested convergence on RMS density matrix=1.00D-08 within 128 cycles.
 Requested convergence on MAX density matrix=1.00D-06.
 Requested convergence on             energy=1.00D-06.
 No special actions if energy rises.
 Fock matrices will be formed incrementally for  20 cycles.

 Cycle   1  Pass 1  IDiag  1:
 FoFJK:  IHMeth= 1 ICntrl=       0 DoSepK=F KAlg= 0 I1Cent=           0 FoldK=F
 IRaf= 650000000 NMat=       1 IRICut=       1 DoRegI=T DoRafI=F ISym2E= 0 IDoP0=0 IntGTp=1.
 FoFCou: FMM=F IPFlag=           0 FMFlag=      100000 FMFlg1=           0
         NFxFlg=           0 DoJE=F BraDBF=F KetDBF=F FulRan=T
         wScrn=  0.000000 ICntrl=         0 IOpCl=  0 I1Cent=           0 NGrid=           0
         NMat0=    1 NMatS0=      1 NMatT0=    0 NMatD0=    1 NMtDS0=    0 NMtDT0=    0
 Symmetry not used in FoFCou.
 E= -2800.60893270120    
 DIIS: error= 3.03D-02 at cycle   1 NSaved=   1.
 NSaved= 1 IEnMin= 1 EnMin= -2800.60893270120     IErMin= 1 ErrMin= 3.03D-02
 ErrMax= 3.03D-02  0.00D+00 EMaxC= 1.00D-01 BMatC= 2.44D+00 BMatP= 2.44D+00
 IDIUse=3 WtCom= 6.97D-01 WtEn= 3.03D-01
 Coeff-Com:  0.100D+01
 Coeff-En:   0.100D+01
 Coeff:      0.100D+01
 Gap=     0.230 Goal=   None    Shift=    0.000
 GapD=    0.230 DampG=1.000 DampE=0.500 DampFc=0.5000 IDamp=-1.
 Damping current iteration by 5.00D-01
 RMSDP=3.95D-02 MaxDP=3.81D+00              OVMax= 2.68D-01

 Cycle   2  Pass 1  IDiag  1:
 RMSU=  1.51D-02    CP:  7.92D-01
 E= -2801.12245943643     Delta-E=       -0.513526735235 Rises=F Damp=T
 DIIS: error= 1.69D-02 at cycle   2 NSaved=   2.
 NSaved= 2 IEnMin= 2 EnMin= -2801.12245943643     IErMin= 2 ErrMin= 1.69D-02
 ErrMax= 1.69D-02  0.00D+00 EMaxC= 1.00D-01 BMatC= 3.26D-01 BMatP= 2.44D+00
 IDIUse=3 WtCom= 8.31D-01 WtEn= 1.69D-01
 Coeff-Com: -0.124D+00 0.112D+01
 Coeff-En:   0.135D+00 0.865D+00
 Coeff:     -0.807D-01 0.108D+01
 Gap=     0.291 Goal=   None    Shift=    0.000
 RMSDP=2.16D-02 MaxDP=1.48D+00 DE=-5.14D-01 OVMax= 2.99D-01

 Cycle   3  Pass 1  IDiag  1:
 RMSU=  1.17D-02    CP:  5.69D-01  2.06D-01
 E= -2801.66323948092     Delta-E=       -0.540780044482 Rises=F Damp=F
 DIIS: error= 8.45D-03 at cycle   3 NSaved=   3.
 NSaved= 3 IEnMin= 3 EnMin= -2801.66323948092     IErMin= 3 ErrMin= 8.45D-03
 ErrMax= 8.45D-03  0.00D+00 EMaxC= 1.00D-01 BMatC= 1.30D-01 BMatP= 3.26D-01
 IDIUse=3 WtCom= 9.15D-01 WtEn= 8.45D-02
 Coeff-Com: -0.177D+00 0.468D+00 0.709D+00
 Coeff-En:   0.000D+00 0.000D+00 0.100D+01
 Coeff:     -0.162D+00 0.428D+00 0.733D+00
 Gap=     0.219 Goal=   None    Shift=    0.000
 RMSDP=6.85D-03 MaxDP=9.87D-01 DE=-5.41D-01 OVMax= 1.14D-01

 Cycle   4  Pass 1  IDiag  1:
 RMSU=  3.04D-03    CP:  4.96D-01  4.13D-01  7.53D-01
 E= -2801.77565842059     Delta-E=       -0.112418939677 Rises=F Damp=F
 DIIS: error= 4.30D-03 at cycle   4 NSaved=   4.
 NSaved= 4 IEnMin= 4 EnMin= -2801.77565842059     IErMin= 4 ErrMin= 4.30D-03
 ErrMax= 4.30D-03  0.00D+00 EMaxC= 1.00D-01 BMatC= 2.62D-02 BMatP= 1.30D-01
 IDIUse=3 WtCom= 9.57D-01 WtEn= 4.30D-02
 Coeff-Com: -0.802D-01 0.181D+00 0.420D+00 0.479D+00
 Coeff-En:   0.000D+00 0.000D+00 0.138D+00 0.862D+00
 Coeff:     -0.767D-01 0.173D+00 0.408D+00 0.495D+00
 Gap=     0.193 Goal=   None    Shift=    0.000
 RMSDP=1.38D-03 MaxDP=1.22D-01 DE=-1.12D-01 OVMax= 3.74D-02

 Cycle   5  Pass 1  IDiag  1:
 RMSU=  1.02D-03    CP:  4.99D-01  3.84D-01  8.00D-01  8.11D-01
 E= -2801.80161562778     Delta-E=       -0.025957207191 Rises=F Damp=F
 DIIS: error= 1.30D-03 at cycle   5 NSaved=   5.
 NSaved= 5 IEnMin= 5 EnMin= -2801.80161562778     IErMin= 5 ErrMin= 1.30D-03
 ErrMax= 1.30D-03  0.00D+00 EMaxC= 1.00D-01 BMatC= 1.36D-03 BMatP= 2.62D-02
 IDIUse=3 WtCom= 9.87D-01 WtEn= 1.30D-02
 Coeff-Com: -0.255D-01 0.546D-01 0.165D+00 0.263D+00 0.542D+00
 Coeff-En:   0.000D+00 0.000D+00 0.000D+00 0.000D+00 0.100D+01
 Coeff:     -0.252D-01 0.539D-01 0.163D+00 0.260D+00 0.548D+00
 Gap=     0.193 Goal=   None    Shift=    0.000
 RMSDP=6.85D-04 MaxDP=1.30D-01 DE=-2.60D-02 OVMax= 1.05D-02

 Cycle   6  Pass 1  IDiag  1:
 RMSU=  3.92D-04    CP:  5.05D-01  3.70D-01  8.27D-01  8.04D-01  8.08D-01
 E= -2801.80284706610     Delta-E=       -0.001231438317 Rises=F Damp=F
 DIIS: error= 5.35D-04 at cycle   6 NSaved=   6.
 NSaved= 6 IEnMin= 6 EnMin= -2801.80284706610     IErMin= 6 ErrMin= 5.35D-04
 ErrMax= 5.35D-04  0.00D+00 EMaxC= 1.00D-01 BMatC= 2.26D-04 BMatP= 1.36D-03
 IDIUse=3 WtCom= 9.95D-01 WtEn= 5.35D-03
 Coeff-Com:  0.728D-03-0.354D-02 0.204D-01 0.636D-01 0.318D+00 0.601D+00
 Coeff-En:   0.000D+00 0.000D+00 0.000D+00 0.000D+00 0.976D-01 0.902D+00
 Coeff:      0.724D-03-0.352D-02 0.203D-01 0.632D-01 0.316D+00 0.603D+00
 Gap=     0.193 Goal=   None    Shift=    0.000
 RMSDP=2.17D-04 MaxDP=1.93D-02 DE=-1.23D-03 OVMax= 3.51D-03

 Cycle   7  Pass 1  IDiag  1:
 RMSU=  1.29D-04    CP:  5.07D-01  3.65D-01  8.25D-01  8.09D-01  8.85D-01
                    CP:  8.12D-01
 E= -2801.80307986409     Delta-E=       -0.000232797992 Rises=F Damp=F
 DIIS: error= 1.14D-04 at cycle   7 NSaved=   7.
 NSaved= 7 IEnMin= 7 EnMin= -2801.80307986409     IErMin= 7 ErrMin= 1.14D-04
 ErrMax= 1.14D-04  0.00D+00 EMaxC= 1.00D-01 BMatC= 2.70D-05 BMatP= 2.26D-04
 IDIUse=3 WtCom= 9.99D-01 WtEn= 1.14D-03
 Coeff-Com:  0.308D-02-0.757D-02-0.693D-02 0.140D-02 0.905D-01 0.309D+00
 Coeff-Com:  0.610D+00
 Coeff-En:   0.000D+00 0.000D+00 0.000D+00 0.000D+00 0.000D+00 0.000D+00
 Coeff-En:   0.100D+01
 Coeff:      0.308D-02-0.756D-02-0.692D-02 0.140D-02 0.904D-01 0.309D+00
 Coeff:      0.611D+00
 Gap=     0.193 Goal=   None    Shift=    0.000
 RMSDP=6.88D-05 MaxDP=9.65D-03 DE=-2.33D-04 OVMax= 1.42D-03

 Cycle   8  Pass 1  IDiag  1:
 RMSU=  4.24D-05    CP:  5.07D-01  3.63D-01  8.26D-01  8.16D-01  8.81D-01
                    CP:  8.97D-01  9.98D-01
 E= -2801.80310941447     Delta-E=       -0.000029550375 Rises=F Damp=F
 DIIS: error= 3.57D-05 at cycle   8 NSaved=   8.
 NSaved= 8 IEnMin= 8 EnMin= -2801.80310941447     IErMin= 8 ErrMin= 3.57D-05
 ErrMax= 3.57D-05  0.00D+00 EMaxC= 1.00D-01 BMatC= 3.18D-06 BMatP= 2.70D-05
 IDIUse=1 WtCom= 1.00D+00 WtEn= 0.00D+00
 Coeff-Com:  0.135D-02-0.291D-02-0.653D-02-0.107D-01-0.119D-01 0.400D-01
 Coeff-Com:  0.275D+00 0.715D+00
 Coeff:      0.135D-02-0.291D-02-0.653D-02-0.107D-01-0.119D-01 0.400D-01
 Coeff:      0.275D+00 0.715D+00
 Gap=     0.193 Goal=   None    Shift=    0.000
 RMSDP=3.16D-05 MaxDP=2.88D-03 DE=-2.96D-05 OVMax= 7.23D-04

 Cycle   9  Pass 1  IDiag  1:
 RMSU=  1.67D-05    CP:  5.07D-01  3.63D-01  8.26D-01  8.17D-01  8.97D-01
                    CP:  9.26D-01  1.10D+00  8.84D-01
 E= -2801.80311337636     Delta-E=       -0.000003961896 Rises=F Damp=F
 DIIS: error= 1.79D-05 at cycle   9 NSaved=   9.
 NSaved= 9 IEnMin= 9 EnMin= -2801.80311337636     IErMin= 9 ErrMin= 1.79D-05
 ErrMax= 1.79D-05  0.00D+00 EMaxC= 1.00D-01 BMatC= 4.74D-07 BMatP= 3.18D-06
 IDIUse=1 WtCom= 1.00D+00 WtEn= 0.00D+00
 Coeff-Com:  0.380D-03-0.708D-03-0.244D-02-0.552D-02-0.155D-01-0.121D-01
 Coeff-Com:  0.690D-01 0.342D+00 0.624D+00
 Coeff:      0.380D-03-0.708D-03-0.244D-02-0.552D-02-0.155D-01-0.121D-01
 Coeff:      0.690D-01 0.342D+00 0.624D+00
 Gap=     0.193 Goal=   None    Shift=    0.000
 RMSDP=1.58D-05 MaxDP=3.36D-03 DE=-3.96D-06 OVMax= 2.41D-04

 Cycle  10  Pass 1  IDiag  1:
 RMSU=  6.59D-06    CP:  5.07D-01  3.62D-01  8.26D-01  8.17D-01  8.95D-01
                    CP:  9.44D-01  1.11D+00  9.96D-01  1.00D+00
 E= -2801.80311390840     Delta-E=       -0.000000532041 Rises=F Damp=F
 DIIS: error= 1.33D-05 at cycle  10 NSaved=  10.
 NSaved=10 IEnMin=10 EnMin= -2801.80311390840     IErMin=10 ErrMin= 1.33D-05
 ErrMax= 1.33D-05  0.00D+00 EMaxC= 1.00D-01 BMatC= 1.19D-07 BMatP= 4.74D-07
 IDIUse=1 WtCom= 1.00D+00 WtEn= 0.00D+00
 Coeff-Com: -0.886D-04 0.249D-03 0.205D-03-0.750D-03-0.654D-02-0.157D-01
 Coeff-Com: -0.183D-01 0.425D-01 0.362D+00 0.637D+00
 Coeff:     -0.886D-04 0.249D-03 0.205D-03-0.750D-03-0.654D-02-0.157D-01
 Coeff:     -0.183D-01 0.425D-01 0.362D+00 0.637D+00
 Gap=     0.193 Goal=   None    Shift=    0.000
 RMSDP=5.83D-06 MaxDP=4.61D-04 DE=-5.32D-07 OVMax= 9.76D-05

 Cycle  11  Pass 1  IDiag  1:
 RMSU=  2.93D-06    CP:  5.07D-01  3.62D-01  8.26D-01  8.17D-01  8.96D-01
                    CP:  9.48D-01  1.13D+00  1.01D+00  1.19D+00  9.68D-01
 E= -2801.80311406047     Delta-E=       -0.000000152068 Rises=F Damp=F
 DIIS: error= 2.55D-06 at cycle  11 NSaved=  11.
 NSaved=11 IEnMin=11 EnMin= -2801.80311406047     IErMin=11 ErrMin= 2.55D-06
 ErrMax= 2.55D-06  0.00D+00 EMaxC= 1.00D-01 BMatC= 9.05D-09 BMatP= 1.19D-07
 IDIUse=1 WtCom= 1.00D+00 WtEn= 0.00D+00
 Coeff-Com: -0.928D-04 0.203D-03 0.465D-03 0.419D-03-0.116D-02-0.583D-02
 Coeff-Com: -0.160D-01-0.264D-01 0.745D-01 0.276D+00 0.697D+00
 Coeff:     -0.928D-04 0.203D-03 0.465D-03 0.419D-03-0.116D-02-0.583D-02
 Coeff:     -0.160D-01-0.264D-01 0.745D-01 0.276D+00 0.697D+00
 Gap=     0.193 Goal=   None    Shift=    0.000
 RMSDP=1.88D-06 MaxDP=3.18D-04 DE=-1.52D-07 OVMax= 3.62D-05

 Cycle  12  Pass 1  IDiag  1:
 RMSU=  7.70D-07    CP:  5.07D-01  3.62D-01  8.26D-01  8.17D-01  8.96D-01
                    CP:  9.49D-01  1.13D+00  1.02D+00  1.23D+00  1.05D+00
                    CP:  9.50D-01
 E= -2801.80311407315     Delta-E=       -0.000000012682 Rises=F Damp=F
 DIIS: error= 7.13D-07 at cycle  12 NSaved=  12.
 NSaved=12 IEnMin=12 EnMin= -2801.80311407315     IErMin=12 ErrMin= 7.13D-07
 ErrMax= 7.13D-07  0.00D+00 EMaxC= 1.00D-01 BMatC= 8.96D-10 BMatP= 9.05D-09
 IDIUse=1 WtCom= 1.00D+00 WtEn= 0.00D+00
 Coeff-Com: -0.273D-04 0.540D-04 0.163D-03 0.248D-03 0.134D-03-0.930D-03
 Coeff-Com: -0.493D-02-0.166D-01-0.602D-02 0.514D-01 0.296D+00 0.681D+00
 Coeff:     -0.273D-04 0.540D-04 0.163D-03 0.248D-03 0.134D-03-0.930D-03
 Coeff:     -0.493D-02-0.166D-01-0.602D-02 0.514D-01 0.296D+00 0.681D+00
 Gap=     0.193 Goal=   None    Shift=    0.000
 RMSDP=7.53D-07 MaxDP=7.18D-05 DE=-1.27D-08 OVMax= 1.11D-05

 Cycle  13  Pass 1  IDiag  1:
 RMSU=  2.50D-07    CP:  5.07D-01  3.62D-01  8.26D-01  8.17D-01  8.96D-01
                    CP:  9.50D-01  1.13D+00  1.02D+00  1.25D+00  1.08D+00
                    CP:  1.03D+00  9.40D-01
 E= -2801.80311407450     Delta-E=       -0.000000001343 Rises=F Damp=F
 DIIS: error= 2.25D-07 at cycle  13 NSaved=  13.
 NSaved=13 IEnMin=13 EnMin= -2801.80311407450     IErMin=13 ErrMin= 2.25D-07
 ErrMax= 2.25D-07  0.00D+00 EMaxC= 1.00D-01 BMatC= 1.14D-10 BMatP= 8.96D-10
 IDIUse=1 WtCom= 1.00D+00 WtEn= 0.00D+00
 Coeff-Com: -0.753D-06-0.321D-06 0.143D-04 0.662D-04 0.227D-03 0.316D-03
 Coeff-Com: -0.248D-03-0.471D-02-0.117D-01-0.103D-01 0.507D-01 0.299D+00
 Coeff-Com:  0.676D+00
 Coeff:     -0.753D-06-0.321D-06 0.143D-04 0.662D-04 0.227D-03 0.316D-03
 Coeff:     -0.248D-03-0.471D-02-0.117D-01-0.103D-01 0.507D-01 0.299D+00
 Coeff:      0.676D+00
 Gap=     0.193 Goal=   None    Shift=    0.000
 RMSDP=2.14D-07 MaxDP=1.83D-05 DE=-1.34D-09 OVMax= 4.79D-06

 Cycle  14  Pass 1  IDiag  1:
 RMSU=  1.05D-07    CP:  5.07D-01  3.62D-01  8.26D-01  8.17D-01  8.96D-01
                    CP:  9.50D-01  1.13D+00  1.02D+00  1.26D+00  1.09D+00
                    CP:  1.06D+00  1.00D+00  1.08D+00
 E= -2801.80311407442     Delta-E=        0.000000000079 Rises=F Damp=F
 DIIS: error= 1.04D-07 at cycle  14 NSaved=  14.
 NSaved=14 IEnMin=13 EnMin= -2801.80311407450     IErMin=14 ErrMin= 1.04D-07
 ErrMax= 1.04D-07  0.00D+00 EMaxC= 1.00D-01 BMatC= 2.20D-11 BMatP= 1.14D-10
 IDIUse=1 WtCom= 1.00D+00 WtEn= 0.00D+00
 Coeff-Com:  0.241D-05-0.547D-05-0.108D-04 0.725D-05 0.963D-04 0.251D-03
 Coeff-Com:  0.444D-03-0.427D-03-0.471D-02-0.109D-01-0.970D-02 0.710D-01
 Coeff-Com:  0.357D+00 0.597D+00
 Coeff:      0.241D-05-0.547D-05-0.108D-04 0.725D-05 0.963D-04 0.251D-03
 Coeff:      0.444D-03-0.427D-03-0.471D-02-0.109D-01-0.970D-02 0.710D-01
 Coeff:      0.357D+00 0.597D+00
 Gap=     0.193 Goal=   None    Shift=    0.000
 RMSDP=5.21D-08 MaxDP=2.82D-06 DE= 7.91D-11 OVMax= 2.15D-06

 Cycle  15  Pass 1  IDiag  1:
 RMSU=  3.78D-08    CP:  5.07D-01  3.62D-01  8.26D-01  8.17D-01  8.96D-01
                    CP:  9.50D-01  1.13D+00  1.02D+00  1.26D+00  1.09D+00
                    CP:  1.06D+00  1.02D+00  1.13D+00  9.02D-01
 E= -2801.80311407455     Delta-E=       -0.000000000127 Rises=F Damp=F
 DIIS: error= 4.70D-08 at cycle  15 NSaved=  15.
 NSaved=15 IEnMin=15 EnMin= -2801.80311407455     IErMin=15 ErrMin= 4.70D-08
 ErrMax= 4.70D-08  0.00D+00 EMaxC= 1.00D-01 BMatC= 2.60D-12 BMatP= 2.20D-11
 IDIUse=1 WtCom= 1.00D+00 WtEn= 0.00D+00
 Coeff-Com:  0.113D-05-0.232D-05-0.675D-05-0.536D-05 0.798D-05 0.670D-04
 Coeff-Com:  0.256D-03 0.471D-03-0.388D-03-0.360D-02-0.119D-01-0.128D-01
 Coeff-Com:  0.647D-01 0.287D+00 0.676D+00
 Coeff:      0.113D-05-0.232D-05-0.675D-05-0.536D-05 0.798D-05 0.670D-04
 Coeff:      0.256D-03 0.471D-03-0.388D-03-0.360D-02-0.119D-01-0.128D-01
 Coeff:      0.647D-01 0.287D+00 0.676D+00
 Gap=     0.193 Goal=   None    Shift=    0.000
 RMSDP=3.00D-08 MaxDP=1.65D-06 DE=-1.27D-10 OVMax= 9.04D-07

 Cycle  16  Pass 1  IDiag  1:
 RMSU=  1.33D-08    CP:  5.07D-01  3.62D-01  8.26D-01  8.17D-01  8.96D-01
                    CP:  9.50D-01  1.13D+00  1.02D+00  1.26D+00  1.09D+00
                    CP:  1.06D+00  1.03D+00  1.17D+00  9.75D-01  9.20D-01
 E= -2801.80311407409     Delta-E=        0.000000000454 Rises=F Damp=F
 DIIS: error= 1.99D-08 at cycle  16 NSaved=  16.
 NSaved=16 IEnMin=15 EnMin= -2801.80311407455     IErMin=16 ErrMin= 1.99D-08
 ErrMax= 1.99D-08  0.00D+00 EMaxC= 1.00D-01 BMatC= 4.71D-13 BMatP= 2.60D-12
 IDIUse=1 WtCom= 1.00D+00 WtEn= 0.00D+00
 Coeff-Com:  0.181D-06-0.301D-06-0.139D-05-0.339D-05-0.129D-04-0.885D-05
 Coeff-Com:  0.532D-04 0.266D-03 0.623D-03 0.130D-03-0.377D-02-0.192D-01
 Coeff-Com: -0.334D-01 0.434D-01 0.348D+00 0.664D+00
 Coeff:      0.181D-06-0.301D-06-0.139D-05-0.339D-05-0.129D-04-0.885D-05
 Coeff:      0.532D-04 0.266D-03 0.623D-03 0.130D-03-0.377D-02-0.192D-01
 Coeff:     -0.334D-01 0.434D-01 0.348D+00 0.664D+00
 Gap=     0.193 Goal=   None    Shift=    0.000
 RMSDP=1.37D-08 MaxDP=1.13D-06 DE= 4.54D-10 OVMax= 4.45D-07

 Cycle  17  Pass 1  IDiag  1:
 RMSU=  5.28D-09    CP:  5.07D-01  3.62D-01  8.26D-01  8.17D-01  8.96D-01
                    CP:  9.50D-01  1.13D+00  1.02D+00  1.26D+00  1.09D+00
                    CP:  1.06D+00  1.03D+00  1.18D+00  1.02D+00  1.08D+00
                    CP:  9.94D-01
 E= -2801.80311407436     Delta-E=       -0.000000000271 Rises=F Damp=F
 DIIS: error= 7.18D-09 at cycle  17 NSaved=  17.
 NSaved=17 IEnMin=15 EnMin= -2801.80311407455     IErMin=17 ErrMin= 7.18D-09
 ErrMax= 7.18D-09  0.00D+00 EMaxC= 1.00D-01 BMatC= 5.96D-14 BMatP= 4.71D-13
 IDIUse=1 WtCom= 1.00D+00 WtEn= 0.00D+00
 Coeff-Com: -0.750D-08 0.401D-07-0.845D-07-0.117D-05-0.736D-05-0.106D-04
 Coeff-Com:  0.656D-06 0.739D-04 0.345D-03 0.418D-03-0.492D-03-0.786D-02
 Coeff-Com: -0.230D-01-0.854D-02 0.878D-01 0.320D+00 0.631D+00
 Coeff:     -0.750D-08 0.401D-07-0.845D-07-0.117D-05-0.736D-05-0.106D-04
 Coeff:      0.656D-06 0.739D-04 0.345D-03 0.418D-03-0.492D-03-0.786D-02
 Coeff:     -0.230D-01-0.854D-02 0.878D-01 0.320D+00 0.631D+00
 Gap=     0.193 Goal=   None    Shift=    0.000
 RMSDP=3.75D-09 MaxDP=2.36D-07 DE=-2.71D-10 OVMax= 1.49D-07

 SCF Done:  E(RMN15) =  -2801.80311407     A.U. after   17 cycles
            NFock= 17  Conv=0.38D-08     -V/T= 2.0018
 KE= 2.796842983286D+03 PE=-1.415385095114D+04 EE= 4.777120443029D+03
 Leave Link  502 at Wed Dec  6 20:36:32 2023, MaxMem=  2147483648 cpu:           17967.3 elap:             713.3
 (Enter /opt/gaussian/g16-c01/g16/l601.exe)
 Copying SCF densities to generalized density rwf, IOpCl= 0 IROHF=0.

 **********************************************************************

            Population analysis using the SCF Density.

 **********************************************************************

 Orbital symmetries:
       Occupied  (A) (A) (A) (A) (A) (A) (A) (A) (A) (A) (A) (A)
                 (A) (A) (A) (A) (A) (A) (A) (A) (A) (A) (A) (A)
                 (A) (A) (A) (A) (A) (A) (A) (A) (A) (A) (A) (A)
                 (A) (A) (A) (A) (A) (A) (A) (A) (A) (A) (A) (A)
                 (A) (A) (A) (A) (A) (A) (A) (A) (A) (A) (A) (A)
                 (A) (A) (A) (A) (A) (A) (A) (A) (A) (A) (A) (A)
                 (A) (A) (A) (A) (A) (A) (A) (A) (A) (A) (A) (A)
                 (A) (A) (A) (A) (A) (A) (A) (A) (A) (A) (A) (A)
                 (A) (A) (A) (A) (A) (A) (A) (A) (A) (A) (A) (A)
                 (A) (A) (A) (A) (A) (A) (A) (A) (A) (A) (A) (A)
                 (A) (A) (A) (A) (A) (A) (A) (A) (A) (A) (A) (A)
                 (A) (A) (A) (A)
       Virtual   (A) (A) (A) (A) (A) (A) (A) (A) (A) (A) (A) (A)
                 (A) (A) (A) (A) (A) (A) (A) (A) (A) (A) (A) (A)
                 (A) (A) (A) (A) (A) (A) (A) (A) (A) (A) (A) (A)
                 (A) (A) (A) (A) (A) (A) (A) (A) (A) (A) (A) (A)
                 (A) (A) (A) (A) (A) (A) (A) (A) (A) (A) (A) (A)
                 (A) (A) (A) (A) (A) (A) (A) (A) (A) (A) (A) (A)
                 (A) (A) (A) (A) (A) (A) (A) (A) (A) (A) (A) (A)
                 (A) (A) (A) (A) (A) (A) (A) (A) (A) (A) (A) (A)
                 (A) (A) (A) (A) (A) (A) (A) (A) (A) (A) (A) (A)
                 (A) (A) (A) (A) (A) (A) (A) (A) (A) (A) (A) (A)
                 (A) (A) (A) (A) (A) (A) (A) (A) (A) (A) (A) (A)
                 (A) (A) (A) (A) (A) (A) (A) (A) (A) (A) (A) (A)
                 (A) (A) (A) (A) (A) (A) (A) (A) (A) (A) (A) (A)
                 (A) (A) (A) (A) (A) (A) (A) (A) (A) (A) (A) (A)
                 (A) (A) (A) (A) (A) (A) (A) (A) (A) (A) (A) (A)
                 (A) (A) (A) (A) (A) (A) (A) (A) (A) (A) (A) (A)
                 (A) (A) (A) (A) (A) (A) (A) (A) (A) (A) (A) (A)
                 (A) (A) (A) (A) (A) (A) (A) (A) (A) (A) (A) (A)
                 (A) (A) (A) (A) (A) (A) (A) (A) (A) (A) (A) (A)
                 (A) (A) (A) (A) (A) (A) (A) (A) (A) (A) (A) (A)
                 (A) (A) (A) (A) (A) (A) (A) (A) (A) (A) (A) (A)
                 (A) (A) (A) (A) (A) (A) (A) (A) (A) (A) (A) (A)
                 (A) (A) (A) (A) (A) (A) (A) (A) (A) (A) (A) (A)
                 (A) (A) (A) (A) (A) (A) (A) (A) (A) (A) (A) (A)
                 (A) (A) (A) (A) (A) (A) (A) (A) (A) (A) (A) (A)
                 (A) (A) (A) (A) (A) (A) (A) (A) (A) (A) (A) (A)
                 (A) (A) (A) (A) (A) (A) (A) (A) (A) (A) (A) (A)
                 (A) (A) (A) (A) (A) (A) (A) (A) (A) (A) (A) (A)
                 (A) (A) (A) (A) (A) (A) (A) (A) (A) (A) (A) (A)
                 (A) (A) (A) (A) (A) (A) (A) (A) (A) (A) (A) (A)
                 (A) (A) (A) (A) (A) (A) (A) (A) (A) (A) (A) (A)
                 (A) (A) (A) (A) (A) (A) (A) (A) (A) (A) (A) (A)
                 (A) (A) (A) (A) (A) (A) (A) (A) (A) (A) (A) (A)
                 (A) (A) (A) (A) (A) (A) (A) (A) (A) (A) (A) (A)
                 (A) (A) (A) (A) (A) (A) (A) (A) (A) (A) (A) (A)
                 (A) (A) (A) (A) (A) (A) (A) (A) (A) (A) (A) (A)
                 (A) (A) (A) (A) (A) (A) (A) (A) (A) (A) (A) (A)
                 (A) (A) (A) (A) (A) (A) (A) (A) (A) (A) (A) (A)
                 (A) (A) (A) (A) (A) (A) (A) (A) (A) (A) (A) (A)
                 (A) (A) (A) (A) (A) (A) (A) (A) (A) (A) (A) (A)
                 (A) (A) (A) (A) (A) (A) (A) (A) (A) (A) (A) (A)
                 (A) (A) (A) (A) (A) (A) (A) (A) (A) (A) (A) (A)
                 (A) (A) (A) (A) (A) (A) (A) (A) (A) (A) (A) (A)
                 (A) (A) (A) (A) (A) (A) (A) (A) (A) (A) (A) (A)
                 (A) (A) (A) (A) (A) (A) (A) (A) (A) (A) (A) (A)
                 (A) (A) (A) (A) (A) (A) (A) (A) (A) (A) (A) (A)
                 (A) (A) (A) (A) (A) (A) (A) (A) (A) (A) (A) (A)
                 (A) (A) (A) (A) (A) (A) (A) (A) (A) (A) (A) (A)
                 (A) (A) (A) (A) (A) (A) (A) (A) (A) (A) (A) (A)
                 (A) (A) (A) (A) (A) (A) (A) (A) (A) (A) (A) (A)
                 (A) (A) (A) (A) (A) (A) (A) (A) (A) (A) (A) (A)
                 (A) (A) (A) (A) (A) (A) (A) (A) (A) (A) (A) (A)
                 (A) (A) (A) (A) (A) (A) (A) (A) (A) (A) (A) (A)
                 (A) (A) (A) (A) (A) (A) (A) (A) (A) (A) (A) (A)
                 (A) (A) (A) (A) (A) (A) (A) (A) (A) (A) (A) (A)
                 (A) (A) (A) (A) (A) (A) (A) (A) (A) (A) (A) (A)
                 (A) (A) (A) (A) (A) (A) (A) (A) (A) (A) (A) (A)
                 (A) (A) (A) (A) (A) (A) (A) (A) (A) (A) (A) (A)
                 (A) (A) (A) (A) (A) (A) (A) (A) (A) (A) (A) (A)
                 (A) (A) (A) (A) (A) (A) (A) (A) (A) (A) (A) (A)
                 (A) (A) (A) (A) (A) (A) (A) (A) (A) (A) (A) (A)
                 (A) (A) (A) (A) (A) (A) (A) (A) (A) (A) (A) (A)
                 (A) (A) (A) (A) (A) (A) (A) (A) (A) (A) (A) (A)
                 (A) (A) (A) (A) (A) (A) (A) (A) (A) (A) (A) (A)
                 (A) (A) (A) (A) (A) (A) (A) (A) (A) (A) (A) (A)
                 (A) (A) (A) (A) (A) (A) (A) (A) (A) (A) (A) (A)
                 (A) (A) (A) (A) (A) (A) (A)
 The electronic state is 1-A.
 Alpha  occ. eigenvalues --  -87.76620 -87.76605 -87.76420 -87.76397 -14.13613
 Alpha  occ. eigenvalues --  -10.09415 -10.08640 -10.08604 -10.07739 -10.07722
 Alpha  occ. eigenvalues --  -10.07528 -10.07506 -10.07170 -10.07143 -10.06798
 Alpha  occ. eigenvalues --  -10.06785 -10.05520 -10.05479 -10.05455 -10.05441
 Alpha  occ. eigenvalues --  -10.05413 -10.05388 -10.05223 -10.05188 -10.04975
 Alpha  occ. eigenvalues --  -10.04903 -10.04726 -10.04712 -10.04510 -10.04490
 Alpha  occ. eigenvalues --  -10.04479 -10.04460 -10.04410 -10.04393 -10.04365
 Alpha  occ. eigenvalues --   -7.74146  -7.74131  -7.73968  -7.73944  -5.92661
 Alpha  occ. eigenvalues --   -5.92647  -5.92484  -5.92460  -5.92022  -5.92007
 Alpha  occ. eigenvalues --   -5.91848  -5.91825  -5.91614  -5.91600  -5.91423
 Alpha  occ. eigenvalues --   -5.91400  -1.05264  -0.95101  -0.95079  -0.92890
 Alpha  occ. eigenvalues --   -0.92871  -0.90972  -0.90620  -0.86259  -0.83505
 Alpha  occ. eigenvalues --   -0.81940  -0.81299  -0.80050  -0.79049  -0.78609
 Alpha  occ. eigenvalues --   -0.78047  -0.77607  -0.77118  -0.76696  -0.73716
 Alpha  occ. eigenvalues --   -0.73537  -0.70701  -0.67896  -0.67352  -0.64159
 Alpha  occ. eigenvalues --   -0.64040  -0.63095  -0.63021  -0.61648  -0.60756
 Alpha  occ. eigenvalues --   -0.59380  -0.58281  -0.57385  -0.57255  -0.56947
 Alpha  occ. eigenvalues --   -0.56913  -0.56334  -0.56280  -0.53016  -0.52185
 Alpha  occ. eigenvalues --   -0.51618  -0.51091  -0.50302  -0.49257  -0.48735
 Alpha  occ. eigenvalues --   -0.48033  -0.47805  -0.46885  -0.46208  -0.45704
 Alpha  occ. eigenvalues --   -0.45673  -0.45274  -0.45141  -0.45010  -0.44482
 Alpha  occ. eigenvalues --   -0.44195  -0.43770  -0.43493  -0.43381  -0.42248
 Alpha  occ. eigenvalues --   -0.42187  -0.41629  -0.41570  -0.41279  -0.40840
 Alpha  occ. eigenvalues --   -0.40414  -0.40078  -0.39417  -0.39370  -0.38851
 Alpha  occ. eigenvalues --   -0.38755  -0.38037  -0.38020  -0.36644  -0.33070
 Alpha  occ. eigenvalues --   -0.31456  -0.30808  -0.29490  -0.29454  -0.29431
 Alpha  occ. eigenvalues --   -0.29050  -0.29029  -0.26071  -0.25375  -0.23319
 Alpha  occ. eigenvalues --   -0.22479
 Alpha virt. eigenvalues --   -0.03196  -0.02932  -0.02661   0.00360   0.01887
 Alpha virt. eigenvalues --    0.02650   0.02891   0.03293   0.03465   0.03672
 Alpha virt. eigenvalues --    0.03861   0.04055   0.04257   0.04701   0.04922
 Alpha virt. eigenvalues --    0.04991   0.05017   0.05094   0.05411   0.05421
 Alpha virt. eigenvalues --    0.05878   0.06296   0.06389   0.06646   0.06771
 Alpha virt. eigenvalues --    0.07059   0.07126   0.07278   0.07382   0.07895
 Alpha virt. eigenvalues --    0.07977   0.08284   0.08870   0.08948   0.09136
 Alpha virt. eigenvalues --    0.09210   0.09356   0.09772   0.09947   0.10013
 Alpha virt. eigenvalues --    0.10058   0.10191   0.10674   0.10813   0.11341
 Alpha virt. eigenvalues --    0.11467   0.11840   0.11888   0.12018   0.12450
 Alpha virt. eigenvalues --    0.13010   0.13233   0.13322   0.13679   0.13706
 Alpha virt. eigenvalues --    0.13844   0.14189   0.14320   0.14405   0.14554
 Alpha virt. eigenvalues --    0.14656   0.14770   0.14827   0.14916   0.15105
 Alpha virt. eigenvalues --    0.15193   0.15371   0.15650   0.15825   0.15881
 Alpha virt. eigenvalues --    0.15975   0.16101   0.16200   0.16362   0.16675
 Alpha virt. eigenvalues --    0.16741   0.16882   0.17054   0.17121   0.17219
 Alpha virt. eigenvalues --    0.17402   0.17673   0.17773   0.17859   0.18211
 Alpha virt. eigenvalues --    0.18318   0.18417   0.18479   0.18567   0.18967
 Alpha virt. eigenvalues --    0.19079   0.19207   0.19420   0.19499   0.19735
 Alpha virt. eigenvalues --    0.19767   0.19976   0.20428   0.20529   0.20663
 Alpha virt. eigenvalues --    0.20804   0.20919   0.21220   0.21382   0.21526
 Alpha virt. eigenvalues --    0.21620   0.21891   0.22091   0.22156   0.22430
 Alpha virt. eigenvalues --    0.22888   0.23127   0.23353   0.23530   0.23648
 Alpha virt. eigenvalues --    0.23847   0.24027   0.24038   0.24171   0.24380
 Alpha virt. eigenvalues --    0.24458   0.24979   0.25075   0.25268   0.25535
 Alpha virt. eigenvalues --    0.25626   0.25756   0.25919   0.26128   0.26433
 Alpha virt. eigenvalues --    0.26549   0.26761   0.27081   0.27115   0.27247
 Alpha virt. eigenvalues --    0.27645   0.27786   0.27877   0.28005   0.28207
 Alpha virt. eigenvalues --    0.28265   0.28760   0.28837   0.29029   0.29247
 Alpha virt. eigenvalues --    0.29451   0.29619   0.29955   0.30076   0.30402
 Alpha virt. eigenvalues --    0.30486   0.30772   0.30889   0.31034   0.31224
 Alpha virt. eigenvalues --    0.31443   0.31507   0.31799   0.31880   0.31982
 Alpha virt. eigenvalues --    0.32209   0.32308   0.32543   0.32646   0.32832
 Alpha virt. eigenvalues --    0.33231   0.33617   0.33761   0.33995   0.34268
 Alpha virt. eigenvalues --    0.34403   0.34719   0.34894   0.34927   0.35183
 Alpha virt. eigenvalues --    0.35604   0.35982   0.35997   0.36534   0.36595
 Alpha virt. eigenvalues --    0.36804   0.36991   0.37038   0.37399   0.37451
 Alpha virt. eigenvalues --    0.37597   0.37866   0.37983   0.38154   0.38271
 Alpha virt. eigenvalues --    0.38477   0.38598   0.38756   0.39016   0.39120
 Alpha virt. eigenvalues --    0.39299   0.39637   0.40437   0.40662   0.40775
 Alpha virt. eigenvalues --    0.41028   0.41084   0.41514   0.41714   0.42059
 Alpha virt. eigenvalues --    0.42405   0.42875   0.43351   0.43582   0.43853
 Alpha virt. eigenvalues --    0.44539   0.44785   0.44918   0.45501   0.46025
 Alpha virt. eigenvalues --    0.46490   0.46894   0.47670   0.47772   0.48100
 Alpha virt. eigenvalues --    0.48190   0.48375   0.49232   0.49709   0.50219
 Alpha virt. eigenvalues --    0.50917   0.51215   0.51763   0.51932   0.53422
 Alpha virt. eigenvalues --    0.53831   0.54652   0.55203   0.55752   0.56067
 Alpha virt. eigenvalues --    0.56773   0.57258   0.57361   0.57873   0.58519
 Alpha virt. eigenvalues --    0.58724   0.58998   0.59114   0.59418   0.59668
 Alpha virt. eigenvalues --    0.59787   0.60332   0.60787   0.60885   0.61181
 Alpha virt. eigenvalues --    0.61554   0.61761   0.61826   0.62553   0.62879
 Alpha virt. eigenvalues --    0.63046   0.63243   0.63427   0.63628   0.64195
 Alpha virt. eigenvalues --    0.64382   0.64818   0.65145   0.65296   0.65561
 Alpha virt. eigenvalues --    0.65783   0.66082   0.66493   0.66824   0.66918
 Alpha virt. eigenvalues --    0.67036   0.67426   0.67696   0.68405   0.68658
 Alpha virt. eigenvalues --    0.69023   0.69478   0.69759   0.69969   0.70944
 Alpha virt. eigenvalues --    0.71045   0.71307   0.71531   0.72120   0.72192
 Alpha virt. eigenvalues --    0.72863   0.73253   0.73455   0.74509   0.75085
 Alpha virt. eigenvalues --    0.75152   0.75303   0.75536   0.75804   0.76134
 Alpha virt. eigenvalues --    0.76278   0.76571   0.76707   0.77080   0.77253
 Alpha virt. eigenvalues --    0.77518   0.77590   0.77843   0.78344   0.78416
 Alpha virt. eigenvalues --    0.78884   0.79062   0.79641   0.79915   0.80037
 Alpha virt. eigenvalues --    0.80389   0.80474   0.80795   0.81058   0.81222
 Alpha virt. eigenvalues --    0.81755   0.82015   0.82195   0.82425   0.82815
 Alpha virt. eigenvalues --    0.83333   0.83619   0.84098   0.84603   0.84939
 Alpha virt. eigenvalues --    0.84993   0.85188   0.85820   0.85963   0.86865
 Alpha virt. eigenvalues --    0.87120   0.87334   0.87864   0.88209   0.88539
 Alpha virt. eigenvalues --    0.88670   0.88858   0.89273   0.89828   0.90267
 Alpha virt. eigenvalues --    0.90362   0.90443   0.90722   0.91034   0.91574
 Alpha virt. eigenvalues --    0.92254   0.92568   0.92937   0.93277   0.93528
 Alpha virt. eigenvalues --    0.94065   0.94280   0.94716   0.94967   0.95687
 Alpha virt. eigenvalues --    0.96646   0.96722   0.97152   0.97435   0.97761
 Alpha virt. eigenvalues --    0.98598   0.98989   0.99160   0.99382   0.99831
 Alpha virt. eigenvalues --    0.99950   1.00663   1.00685   1.00960   1.01653
 Alpha virt. eigenvalues --    1.02101   1.02226   1.02535   1.02725   1.03047
 Alpha virt. eigenvalues --    1.03285   1.03584   1.04420   1.05040   1.05219
 Alpha virt. eigenvalues --    1.05532   1.06029   1.06161   1.06461   1.06882
 Alpha virt. eigenvalues --    1.07072   1.07359   1.08121   1.08723   1.08969
 Alpha virt. eigenvalues --    1.09328   1.10150   1.10396   1.10771   1.11119
 Alpha virt. eigenvalues --    1.11397   1.12199   1.12422   1.13119   1.13676
 Alpha virt. eigenvalues --    1.14405   1.15225   1.15938   1.16159   1.17410
 Alpha virt. eigenvalues --    1.18988   1.19429   1.19659   1.21117   1.21664
 Alpha virt. eigenvalues --    1.22146   1.23251   1.24311   1.25825   1.26514
 Alpha virt. eigenvalues --    1.26934   1.28616   1.29018   1.29580   1.31582
 Alpha virt. eigenvalues --    1.32184   1.34181   1.34773   1.36225   1.36979
 Alpha virt. eigenvalues --    1.37186   1.37194   1.40509   1.40758   1.41617
 Alpha virt. eigenvalues --    1.42122   1.44115   1.44280   1.45900   1.46758
 Alpha virt. eigenvalues --    1.48381   1.48589   1.48781   1.49348   1.49908
 Alpha virt. eigenvalues --    1.50172   1.51944   1.52259   1.52612   1.54036
 Alpha virt. eigenvalues --    1.54417   1.55036   1.55344   1.55849   1.56454
 Alpha virt. eigenvalues --    1.56712   1.57315   1.57519   1.58135   1.58331
 Alpha virt. eigenvalues --    1.58465   1.58738   1.58993   1.59187   1.59256
 Alpha virt. eigenvalues --    1.59759   1.60041   1.60745   1.60844   1.60901
 Alpha virt. eigenvalues --    1.61977   1.62458   1.63734   1.64597   1.64719
[...]
 0191,-0.00000466,-0.00000185,-0.00000262,0.00000119,0.00000019,0.00000
 120,0.00000144,-0.00000068,0.00000086,0.00000230,0.00000104,0.00001108
 ,0.00001265,-0.00000410,-0.00000014,-0.00000223,-0.00000038,-0.0000053
 3,-0.00000545,0.00000051,-0.00000004,0.00000002,-0.00000034,0.00000061
 ,-0.00000627,-0.00000253,0.00001300,-0.00005654,-0.00004188,0.00000228
 ,0.00000074,0.00000055,0.00004000,-0.00008327,-0.00003830,-0.00000482,
 0.00000190,-0.00000179,0.00093050,-0.00036752,-0.00015013,0.00000176,0
 .00000289,0.00000136,-0.00021758,-0.00016753,0.00007480,-0.00000256,-0
 .00000373,-0.00000098,-0.00265625,-0.00393482,-0.00050639,-0.00000261,
 0.00000341,0.00000067,0.01146694,-0.01539656,-0.00243339,0.00000154,-0
 .00000019,-0.00000011,-0.10196135,0.10667967,0.01764065,-0.00000075,-0
 .00000136,-0.00000035,-0.00554305,0.02607511,0.00425997,0.00000058,-0.
 00000001,0.,-0.00000049,0.00000009,-0.00000015,-0.00000025,0.00000033,
 -0.00000064,-0.00000011,0.00000009,-0.00000093,0.00000002,0.00000069,-
 0.00000015,-0.00000042,0.00000014,0.00000018,0.00000039,-0.00000021,-0
 .00000003,-0.00000027,0.00000002,0.00000032,0.00000016,-0.00000020,0.0
 0000018,0.,0.00000081,-0.00000009,-0.00000005,-0.00000036,0.00000019,0
 .00000029,0.00000056,0.00000072,-0.00002000,-0.00001906,-0.00000408,0.
 00000021,-0.00000025,0.00000034,0.00004315,-0.00002737,-0.00005644,0.0
 0000005,-0.00000228,-0.00000046,0.00019318,0.00106893,0.00014493,-0.00
 000196,0.00000148,0.00000038,0.10065720,0.00000136,-0.00000114,0.00000
 031,0.00007155,0.00008097,-0.00001079,0.00000493,0.00000106,0.00000114
 ,-0.00071363,0.00169662,-0.00079001,-0.00010652,-0.00003272,0.00000006
 ,0.00002199,0.00001769,-0.00000048,0.00000723,-0.00004818,0.00000966,0
 .00002449,-0.00005596,0.00000197,0.00005106,0.00006600,-0.00000272,-0.
 00000291,0.00002472,-0.00000284,0.00000483,-0.00001021,0.00000190,0.00
 001384,-0.00001108,-0.00000214,-0.00000488,0.00000526,0.00000089,-0.00
 002377,-0.00000530,-0.00000597,-0.00000353,-0.00000605,0.00000448,0.00
 003013,0.00003217,-0.00001726,-0.00001206,0.00000300,-0.00000234,-0.00
 002844,-0.00000596,0.00000794,0.00000252,-0.00000383,0.00000077,0.0000
 0851,-0.00001548,-0.00000335,0.00003093,-0.00012454,-0.00004328,-0.000
 00550,0.00000372,-0.00000178,-0.00007662,-0.00008888,-0.00000504,-0.00
 000930,0.00000371,-0.00000048,0.00091598,-0.00028197,-0.00030735,0.000
 00333,0.00000579,0.00000444,-0.00019337,-0.00020760,0.00008334,0.00000
 294,-0.00001088,-0.00000450,-0.00223600,-0.00294352,-0.00084526,-0.000
 00075,0.00000411,0.00000211,0.01264565,-0.01140123,-0.00208570,-0.0000
 0333,-0.00000120,0.00000012,0.10655528,-0.29996157,-0.04325363,-0.0000
 0336,0.00000823,0.00000125,-0.00158076,0.00012377,-0.00060185,-0.00000
 327,-0.00000372,0.00000084,0.00000196,0.00000066,0.00000112,0.00000474
 ,0.00000062,-0.00000092,0.00001185,-0.00000122,0.00000034,-0.00000082,
 -0.00000122,0.00000038,-0.00000125,-0.00000678,-0.00000005,-0.00000241
 ,-0.00000089,0.00000025,0.00000058,0.00000957,-0.00000119,0.00000009,0
 .00000139,-0.00000227,0.00000019,-0.00000355,0.00000183,-0.00000155,0.
 00000124,-0.00000050,0.00000286,0.00000068,0.00000108,-0.00002094,-0.0
 0003695,-0.00000839,-0.00000163,0.00000023,-0.00000068,-0.00000778,0.0
 0002008,0.00000661,-0.00000039,-0.00000416,-0.00000180,-0.00031773,0.0
 0048747,0.00040399,-0.00000141,0.00000270,0.00000026,-0.11552770,0.312
 61415,0.00000052,-0.00000027,0.00000246,0.00006328,0.00002398,-0.00002
 348,0.00000100,-0.00000003,0.00000157,0.00013717,-0.00072546,0.0066125
 2,-0.00002803,-0.00000561,-0.00000112,0.00000749,0.00000486,-0.0000006
 1,-0.00000112,-0.00001338,0.00000338,0.00000797,-0.00001654,0.00000107
 ,0.00000876,0.00001883,-0.00000266,-0.00000113,0.00000409,0.00000164,0
 .00000046,-0.00000348,-0.00000022,0.00000541,-0.00000313,-0.00000812,-
 0.00000241,0.00000123,-0.00000118,-0.00000044,0.00000338,0.00000146,-0
 .00000029,-0.00000085,-0.00000156,0.00002104,0.00002232,0.00000878,-0.
 00000258,-0.00000024,-0.00000056,-0.00000655,-0.00000891,-0.00000783,0
 .00000125,-0.00000011,-0.00000007,0.00000350,-0.00000083,-0.00000095,-
 0.00005770,-0.00002869,0.00001025,-0.00000285,0.00000076,-0.00000206,0
 .00002240,0.00009207,-0.00015131,0.00000070,0.00000036,-0.00000144,0.0
 0004292,-0.00020553,0.00080812,-0.00000009,0.00000036,-0.00000034,-0.0
 0010287,0.00004842,-0.00011939,0.00000032,-0.00000216,-0.00000212,-0.0
 0033058,-0.00083152,0.00234933,-0.00000002,0.00000146,-0.00000437,0.00
 181251,-0.00174071,0.00112791,-0.00000070,0.,-0.00000189,0.01748809,-0
 .04325714,-0.03962251,-0.00000063,0.00000253,-0.00000269,0.00012875,-0
 .00119385,0.00428452,-0.00000138,-0.00000087,-0.00000008,0.00000094,0.
 00000005,0.00000014,0.00000067,-0.00000127,0.00000311,0.00000014,0.000
 00414,0.00000325,-0.00000009,0.00000001,0.00000086,-0.00000005,-0.0000
 0118,0.00000078,-0.00000044,-0.00000005,0.00000094,-0.00000121,0.00000
 068,0.00000297,-0.00000112,0.00000011,-0.00000006,0.00000008,-0.000000
 71,0.00000029,0.00000055,0.00000025,0.00000003,0.00000011,-0.00000041,
 0.00000115,0.00000812,-0.00000629,0.00001184,-0.00000122,-0.00000033,0
 .00000084,0.00008354,-0.00004696,0.00007480,-0.00000103,-0.00000148,0.
 00000501,-0.00005176,0.00037048,-0.00188957,-0.00000041,0.00000028,0.0
 0000348,-0.01922453,0.04677563,0.03091889,0.00003504,-0.00015321,-0.00
 005556,-0.00000002,-0.00000024,0.00000021,0.00742382,-0.00734939,-0.00
 093694,-0.00000045,-0.00000027,0.00000004,0.00001978,-0.00000783,0.000
 00004,0.00000010,-0.00001045,-0.00000023,-0.00000507,0.00000225,0.0000
 0055,-0.00000935,0.00001332,0.00000161,-0.00000405,-0.00000998,0.00000
 004,0.00000097,0.00000575,-0.00000048,-0.00000742,-0.00000589,0.000002
 82,-0.00000044,-0.00000269,0.00000064,0.00000344,-0.00000321,-0.000004
 14,0.00000065,0.00000111,0.00000005,-0.00002387,-0.00000712,0.00001089
 ,0.00000105,-0.00000017,0.,0.00001383,-0.00000446,0.00000185,0.0000019
 1,0.00000022,-0.00000015,-0.00000040,-0.00000078,0.00000014,0.00008605
 ,-0.00010301,-0.00002009,-0.00000110,-0.00000328,-0.00000085,0.0000569
 0,0.00003514,0.00000878,-0.00000010,0.00000051,0.00000011,0.00084146,0
 .00006753,-0.00000028,0.00000221,0.00000132,-0.00000054,0.00004955,0.0
 0007224,0.00005480,-0.00000062,0.00000109,0.00000083,-0.00115837,-0.00
 386646,-0.00062575,-0.00000043,-0.00000120,-0.00000041,-0.00481370,-0.
 00134794,-0.00050995,0.00000101,0.00000019,0.00000004,-0.00813971,0.02
 070826,0.00286242,0.00000027,0.00000064,0.00000022,-0.22247360,0.15471
 077,0.01823677,-0.00000040,0.00000071,0.00000008,-0.00000065,0.0000001
 1,0.00000012,0.00000068,-0.00000075,0.00000019,-0.00000330,0.00000017,
 0.00000060,-0.00000028,0.00000021,-0.00000034,0.00000083,-0.00000212,0
 .00000021,0.00000018,-0.00000033,0.00000013,-0.00000017,0.00000190,0.0
 0000077,0.00000035,0.00000003,0.00000007,0.00000019,0.00000024,-0.0000
 0013,0.00000002,-0.00000089,0.00000042,-0.00000004,0.00000043,-0.00000
 042,0.00000447,-0.00000771,0.00000512,-0.00000042,0.,0.00000018,-0.000
 00445,0.00002638,0.00001035,0.00000011,0.00000022,0.00000002,-0.000306
 00,0.00114942,0.00015706,0.00000028,-0.00000009,0.,0.00082815,-0.00049
 025,0.00007605,0.00000017,0.00000016,-0.00000003,0.22758108,0.00001773
 ,-0.00019803,-0.00026281,0.00000003,-0.00000092,-0.00000034,0.01574301
 ,-0.01112473,-0.00102051,0.00000029,-0.00000097,0.00000008,0.00004196,
 -0.00002023,0.,-0.00000524,-0.00002187,0.00000161,-0.00000726,0.000006
 16,0.00000082,-0.00002181,0.00003235,0.00000125,-0.00000477,-0.0000211
 0,0.00000127,0.00000151,0.00001560,-0.00000270,-0.00000622,-0.00000011
 ,-0.00000358,-0.00000345,-0.00000321,0.00000040,0.00000263,-0.00001009
 ,-0.00000553,-0.00000073,0.00000178,0.00000024,-0.00007170,-0.00002147
 ,0.00005117,0.00000298,-0.00000484,0.00000176,0.00003346,-0.00001613,0
 .00000237,0.00000628,0.00000339,-0.00000094,-0.00000088,-0.00000203,0.
 00000067,0.00017147,-0.00007489,0.00006742,-0.00000355,-0.00000403,-0.
 00000035,0.00002650,0.00006999,-0.00004043,0.00000323,0.00000124,-0.00
 000085,0.00128090,0.00013118,-0.00020742,0.00000190,0.00000101,0.00000
 046,0.00007914,0.00002692,0.00009751,-0.00000039,0.00000111,0.00000126
 ,-0.00301549,-0.00469063,-0.00067223,-0.00000258,-0.00000275,-0.000001
 33,-0.00181750,0.00110075,-0.00074885,-0.00000035,-0.00000002,0.000000
 23,-0.00630068,0.00898988,0.00079289,0.00000212,-0.00000017,0.00000038
 ,0.15659444,-0.18991025,-0.02148653,0.00000066,0.00000405,0.00000066,-
 0.00000159,0.00000031,0.00000065,0.00000202,-0.00000203,0.00000071,-0.
 00001025,-0.00000020,0.00000042,-0.00000226,-0.00000027,-0.00000018,0.
 00000214,-0.00000570,0.00000006,0.00000058,-0.00000118,0.00000017,-0.0
 0000051,0.00000527,-0.00000053,0.00000136,-0.00000025,0.00000016,0.000
 00067,0.00000063,-0.00000046,0.,-0.00000248,0.00000098,-0.00000008,0.0
 0000111,-0.00000134,0.00000272,-0.00001572,-0.00000413,-0.00000111,-0.
 00000002,0.00000007,0.00000119,0.00006596,0.00004192,0.00000075,0.0000
 0035,-0.00000043,-0.00017603,0.00053128,-0.00003950,0.00000030,-0.0000
 0060,-0.00000026,0.00085342,0.00005363,0.00072701,-0.00000017,0.000000
 42,-0.00000017,-0.16342069,0.19511222,-0.00009904,-0.00054006,0.000173
 82,0.00000023,0.00000014,0.00000076,0.00241727,-0.00154988,-0.00295132
 ,0.00000032,0.00000001,0.00000047,-0.00002043,0.00000901,-0.00000154,-
 0.00001042,0.00002390,-0.00000631,0.00000902,-0.00000165,-0.00000181,-
 0.00000375,-0.00002436,0.00000129,0.00000348,0.00001187,-0.00000171,-0
 .00000077,-0.00000756,0.00000278,0.00000977,-0.00001341,0.00000303,-0.
 00000020,-0.00000039,-0.00000151,0.00001338,-0.00000267,0.00002346,-0.
 00000070,-0.00000131,0.00000052,0.00007105,-0.00005565,-0.00018570,-0.
 00000037,0.00000090,-0.00000092,-0.00002231,0.00003444,-0.00002199,-0.
 00000314,0.00000026,-0.00000094,0.00000004,0.00000146,-0.00000003,0.00
 039626,0.00034399,0.00017847,0.00000094,0.00000363,-0.00000002,-0.0003
 7828,0.00008733,-0.00001930,-0.00000027,-0.00000057,-0.00000021,0.0003
 9830,0.00011739,0.00225432,-0.00000251,-0.00000073,-0.00000053,0.00007
 440,-0.00011292,-0.00020466,0.00000042,-0.00000111,-0.00000151,-0.0003
 2324,-0.00127550,-0.00034988,0.00000097,0.00000147,0.00000006,-0.00063
 066,-0.00076006,0.00576511,0.00000024,0.,-0.00000166,-0.00126612,0.001
 53075,0.00303131,-0.00000078,0.00000054,-0.00000133,0.01840635,-0.0212
 2276,-0.02605416,-0.00000048,-0.00000129,-0.00000164,0.00000024,0.0000
 0013,-0.00000052,-0.00000057,0.00000128,-0.00000081,-0.00000047,-0.000
 00078,0.00000776,0.00000056,0.00000019,0.00000170,-0.00000054,0.000003
 19,0.00000304,-0.00000034,0.00000059,0.00000062,-0.00000395,-0.0000056
 6,-0.00000558,-0.00000055,0.00000022,0.00000052,-0.00000059,-0.0000005
 4,0.00000006,-0.00000003,0.00000114,-0.00000048,0.00000085,-0.00000073
 ,0.00000073,-0.00000585,-0.00000630,0.00000485,0.00000077,-0.00000049,
 0.00000038,-0.00002451,-0.00000139,0.00005229,0.00000018,-0.00000027,0
 .00000075,-0.00001262,0.00002564,0.00072443,-0.00000035,0.00000014,0.0
 0000207,0.00028674,0.00068216,-0.00439461,-0.00000005,-0.00000059,0.00
 000156,-0.01927790,0.02270705,0.02197352,-0.00000002,0.00000022,-0.000
 00022,0.00003619,0.00015325,0.00005028,-0.00000044,0.00000026,-0.00000
 004,0.00729104,0.00705680,0.00099465,0.00001905,0.00000712,0.00000011,
 -0.00000491,-0.00000205,-0.00000056,0.00000028,0.00000991,0.00000030,-
 0.00000379,0.00000961,-0.00000003,-0.00000921,-0.00001245,-0.00000167,
 0.00000085,-0.00000545,0.00000043,-0.00000034,0.00000265,-0.00000062,-
 0.00000712,0.00000610,-0.00000295,0.00000063,-0.00000109,-0.00000005,0
 .00000352,0.00000300,0.00000390,0.00000100,0.00000007,0.00000004,-0.00
 002198,0.00000754,-0.00000887,0.00000178,-0.00000020,0.00000015,0.0000
 1319,0.00000372,-0.00000155,-0.00000037,0.00000075,-0.00000013,-0.0000
 0099,0.00000320,0.00000084,0.00008755,0.00009784,0.00002056,-0.0000001
 6,-0.00000049,-0.00000012,0.00005322,-0.00003549,-0.00000892,0.0000021
 3,-0.00000134,0.00000057,0.00082203,-0.00007973,-0.00001338,-0.0000006
 2,-0.00000105,-0.00000080,0.00004799,-0.00007179,-0.00005138,-0.000000
 37,0.00000115,0.00000038,-0.00105263,0.00381557,0.00060919,0.00000102,
 -0.00000021,-0.00000002,-0.00476745,0.00144992,0.00042173,0.00000022,-
 0.00000065,-0.00000020,-0.00836055,-0.02043226,-0.00293322,-0.00000042
 ,-0.00000063,-0.00000006,-0.22731215,-0.15393419,-0.02004561,0.0000006
 6,0.00000070,-0.00000017,-0.00000063,-0.00000009,-0.00000011,-0.000000
 24,-0.00000021,0.00000032,-0.00000314,-0.00000011,-0.00000067,0.000000
 18,0.00000031,-0.00000013,0.00000083,0.00000199,-0.00000022,0.00000032
 ,-0.00000005,-0.00000007,-0.00000022,-0.00000177,-0.00000074,-0.000000
 04,-0.00000040,0.00000039,0.00000004,0.00000084,-0.00000040,0.00000017
 ,-0.00000023,0.00000013,-0.00000039,0.,-0.00000019,0.00000454,0.000007
 42,-0.00000519,0.00000010,-0.00000021,-0.00000003,-0.00000499,-0.00002
 519,-0.00001007,0.00000028,0.00000008,0.,-0.00032072,-0.00113551,-0.00
 016526,0.00000017,-0.00000015,0.00000001,0.00082414,0.00047263,-0.0000
 2635,-0.00000017,-0.00000010,0.00000002,0.23266094,-0.00000004,-0.0000
 0092,-0.00000034,-0.00001966,-0.00020026,-0.00026389,-0.00000030,-0.00
 000097,0.00000008,-0.01603879,-0.01098131,-0.00115378,-0.00004260,-0.0
 0001966,-0.00000031,0.00000744,0.00000608,0.00000088,0.00000486,-0.000
 02212,0.00000164,0.00000447,-0.00002134,0.00000131,0.00002249,0.000032
 20,0.00000144,-0.00000124,0.00001571,-0.00000272,0.00000340,-0.0000033
 1,0.00000043,0.00000637,-0.00000032,-0.00000349,0.00000075,0.00000179,
 0.00000025,-0.00000282,-0.00001010,-0.00000562,-0.00000308,-0.00000479
 ,0.00000174,0.00007133,-0.00002278,0.00005185,-0.00000625,0.00000350,-
 0.00000099,-0.00003396,-0.00001564,0.00000215,0.00000084,-0.00000206,0
 .00000068,0.00000350,-0.00000414,-0.00000034,-0.00017464,-0.00007365,0
 .00006581,-0.00000319,0.00000130,-0.00000087,-0.00002593,0.00007101,-0
 .00004045,-0.00000192,0.00000107,0.00000044,-0.00129071,0.00015358,-0.
 00021671,0.00000041,0.00000112,0.00000128,-0.00008022,0.00002943,0.000
 09784,0.00000255,-0.00000282,-0.00000132,0.00296069,-0.00480312,-0.000
 66053,0.00000033,-0.00000002,0.00000023,0.00191949,0.00104742,-0.00074
 326,-0.00000213,-0.00000012,0.00000036,0.00658006,0.00922223,0.0008874
 9,-0.00000059,0.00000407,0.00000066,-0.15581523,-0.18479077,-0.0223107
 7,-0.00000207,-0.00000201,0.00000070,0.00000160,0.00000029,0.00000066,
 0.00000227,-0.00000031,-0.00000017,0.00001030,-0.00000037,0.00000051,-
 0.00000060,-0.00000118,0.00000016,-0.00000225,-0.00000570,0.00000005,-
 0.00000137,-0.00000023,0.00000015,0.00000060,0.00000529,-0.00000051,0.
 00000011,0.00000111,-0.00000134,-0.00000006,-0.00000249,0.00000098,-0.
 00000066,0.00000064,-0.00000047,0.00000112,-0.00000004,0.00000008,-0.0
 0000302,-0.00001579,-0.00000407,-0.00000075,0.00000036,-0.00000044,-0.
 00000033,0.00006639,0.00004207,-0.00000031,-0.00000060,-0.00000026,0.0
 0019034,0.00054704,-0.00003530,0.00000018,0.00000042,-0.00000017,-0.00
 087131,0.00005978,0.00072186,0.00000011,0.00000033,-0.00000021,0.16263
 043,0.18973676,-0.00000023,0.00000014,0.00000075,0.00008904,-0.0005404
 9,0.00017501,-0.00000032,0.00000002,0.00000046,-0.00236546,-0.00145783
 ,-0.00296191,0.00002069,0.00000872,-0.00000138,-0.00000906,-0.00000151
 ,-0.00000188,0.00001086,0.00002378,-0.00000623,-0.00000329,0.00001197,
 -0.00000173,0.00000329,-0.00002448,0.00000130,0.00000062,-0.00000760,0
 .00000279,0.00000021,-0.00000038,-0.00000152,-0.00001007,-0.00001320,0
 .00000295,0.00000068,-0.00000132,0.00000053,-0.00001357,-0.00000242,0.
 00002339,0.00000040,0.00000089,-0.00000091,-0.00007073,-0.00005436,-0.
 00018628,0.00000316,0.00000021,-0.00000092,0.00002313,0.00003408,-0.00
 002184,-0.00000002,0.00000147,-0.00000003,-0.00000088,0.00000366,-0.00
 000002,-0.00039116,0.00035105,0.00017561,0.00000025,-0.00000058,-0.000
 00021,0.00038011,0.00008078,-0.00001656,0.00000251,-0.00000078,-0.0000
 0050,-0.00040674,0.00012356,0.00225138,-0.00000043,-0.00000111,-0.0000
 0151,-0.00007429,-0.00011221,-0.00020561,-0.00000094,0.00000149,0.0000
 0006,0.00029434,-0.00125329,-0.00034336,-0.00000022,0.,-0.00000167,0.0
 0054194,-0.00076224,0.00577216,0.00000079,0.00000052,-0.00000133,0.001
 21146,0.00136383,0.00301968,0.00000047,-0.00000130,-0.00000163,-0.0202
 1470,-0.02203264,-0.02633484,0.00000060,0.00000127,-0.00000081,-0.0000
 0023,0.00000014,-0.00000052,-0.00000057,0.00000020,0.00000170,0.000000
 38,-0.00000079,0.00000775,0.00000035,0.00000059,0.00000063,0.00000058,
 0.00000319,0.00000304,0.00000055,0.00000021,0.00000052,0.00000389,-0.0
 0000574,-0.00000556,-0.00000087,-0.00000071,0.00000073,0.00000006,0.00
 000115,-0.00000049,0.00000058,-0.00000055,0.00000006,-0.00000078,-0.00
 000048,0.00000037,0.00000574,-0.00000635,0.00000486,-0.00000019,-0.000
 00027,0.00000075,0.00002407,-0.00000198,0.00005240,0.00000033,0.000000
 13,0.00000208,0.00000554,0.00001732,0.00072338,0.00000003,-0.00000059,
 0.00000156,-0.00023788,0.00069047,-0.00439674,-0.00000003,-0.00000021,
 0.00000101,0.02117603,0.02356455,0.02226907\\-0.00000135,-0.00001485,0
 .00000135,-0.00000152,-0.00001291,-0.00000668,-0.00000727,0.00000461,-
 0.00001351,0.00000833,0.00000181,0.00000758,0.00000079,-0.00000437,-0.
 00000930,0.00003894,-0.00001947,0.00000728,-0.00003767,-0.00001679,-0.
 00000198,-0.00000351,0.00001851,-0.00000044,-0.00001026,0.00001823,-0.
 00000057,0.00000358,0.00000032,0.00000473,-0.00002555,0.00001087,-0.00
 000488,0.00002848,0.00001091,-0.00000120,-0.00000883,-0.00001036,0.000
 00437,0.00001809,-0.00000906,0.00000350,-0.00000680,0.00000079,-0.0000
 0136,0.00000543,0.00000314,-0.00000031,0.00000507,0.00001165,0.0000002
 0,-0.00000697,0.00000423,0.00000089,0.00000391,0.00000454,-0.00000793,
 0.00002248,0.00000448,0.00000542,-0.00002228,0.00000430,0.00001348,-0.
 00000704,-0.00000382,-0.00000343,0.00000682,-0.00000274,-0.00000829,-0
 .00003087,0.00003270,-0.00000159,0.00003481,0.00003083,0.00000064,0.00
 000795,0.00000039,-0.00000124,-0.00000989,0.00000105,-0.00000265,0.000
 03346,-0.00002811,0.00000954,-0.00003392,-0.00002554,-0.00000118,-0.00
 000258,-0.00001431,-0.00000887,0.00000231,-0.00001447,-0.00000914,-0.0
 0000745,0.00000916,-0.00000532,0.00000822,0.00000706,0.00000970,0.0000
 0083,0.00000465,0.00001224,-0.00000206,0.00000736,-0.00000825,0.000000
 50,-0.00000366,0.00000186,0.00000026,0.00000103,0.00000148,0.00000621,
 -0.00000273,0.00000099,-0.00000547,-0.00000257,0.00000063,0.00000149,0
 .00000116,-0.00000054,-0.00000284,0.00000035,-0.00000044,0.00000309,-0
 .00000902,0.00000066,-0.00000326,-0.00000818,0.00000048,-0.00000012,-0
 .00000402,0.00000417,-0.00000304,-0.00000177,0.00000119,-0.00000022,0.
 00000208,0.00000165,-0.00000060,0.00000293,0.00000055,0.00000005,0.000
 00299,0.00000032,-0.00000044,-0.00000353,0.00000143,0.00000052,-0.0000
 0368,0.00000131,-0.00000033,0.00000739,0.00000047,0.00000058,0.0000070
 3,0.00000106,0.00000113,-0.00000097,-0.00000129,-0.00000115,-0.0000012
 4,0.00000051,-0.00000121,0.00000057,0.00000204,0.00000120,0.00000107,-
 0.00000134\\\@
 The archive entry for this job was punched.


 10 WHATSOEVER THY HAND FINDETH TO DO, DO IT WITH THY  
 MIGHT. FOR THERE IS NO WORK, NOR DEVICE, NOR KNOWLEDGE, NOR  
 WISDOM, IN THE GRAVE, WHITHER THOU GOEST.                    
 11 I RETURNED AND SAW UNDER THE SUN, THAT THE RACE IS NOT TO 
 THE SWIFT, NOR THE BATTLE TO THE STRONG, NEITHER YET BREAD TO
 THE WISE, NOR YET RICHES TO MEN OF UNDERSTANDING, NOR YET    
 FAVOR TO MEN OF SKILL. BUT TIME AND CHANCE HAPPEN TO THEM ALL.
 12 FOR MAN ALSO KNOWETH NOT HIS TIME. AS THE FISHES   
 THAT ARE TAKEN IN AN EVIL NET, AND AS THE BIRDS THAT ARE     
 CAUGHT IN THE SNARE. SO ARE THE SONS OF MEN SNARED IN AN EVIL
 TIME, WHEN IT FALLETH SUDDENLY UPON THEM.
                                         ECCLESIASTES 9
 Job cpu time:       2 days 19 hours 41 minutes 35.4 seconds.
 Elapsed time:       0 days  2 hours 39 minutes 39.0 seconds.
 File lengths (MBytes):  RWF=   4157 Int=      0 D2E=      0 Chk=     72 Scr=      1
 Normal termination of Gaussian 16 at Thu Dec  7 02:06:35 2023.
